Title

750 atoms
3 atom types
600 bonds
600 bond types

-10.797442 10.797442 xlo xhi
-10.797442 10.797442 ylo yhi
-10.797442 10.797442 zlo zhi


Atoms

1 1 1 -0.74640 2.241 6.834 -0.211 #H2G
2 1 2 0.37320 1.924 6.680 -0.329 #H2E
3 1 2 0.37320 2.558 6.987 -0.093 #H2E
4 1 3 0.00000 1.931 6.684 -0.326 #H2N
5 1 3 0.00000 2.550 6.983 -0.095 #H2N
6 2 1 -0.74640 -7.055 9.708 4.108 #H2G
7 2 2 0.37320 -7.197 9.401 3.955 #H2E
8 2 2 0.37320 -6.911 10.015 4.260 #H2E
9 2 3 0.00000 -7.195 9.407 3.958 #H2N
10 2 3 0.00000 -6.915 10.008 4.256 #H2N
11 3 1 -0.74640 8.387 -9.263 7.524 #H2G
12 3 2 0.37320 8.209 -9.281 7.850 #H2E
13 3 2 0.37320 8.563 -9.244 7.198 #H2E
14 3 3 0.00000 8.214 -9.281 7.843 #H2N
15 3 3 0.00000 8.559 -9.244 7.205 #H2N
16 4 1 -0.74640 -1.360 2.399 8.079 #H2G
17 4 2 0.37320 -1.699 2.412 8.228 #H2E
18 4 2 0.37320 -1.020 2.385 7.930 #H2E
19 4 3 0.00000 -1.692 2.412 8.224 #H2N
20 4 3 0.00000 -1.026 2.385 7.933 #H2N
21 5 1 -0.74640 -9.235 -2.178 9.847 #H2G
22 5 2 0.37320 -8.991 -1.997 10.062 #H2E
23 5 2 0.37320 -9.478 -2.359 9.635 #H2E
24 5 3 0.00000 -8.996 -2.000 10.056 #H2N
25 5 3 0.00000 -9.474 -2.355 9.640 #H2N
26 6 1 -0.74640 -2.950 -3.335 -6.101 #H2G
27 6 2 0.37320 -3.004 -3.044 -6.325 #H2E
28 6 2 0.37320 -2.897 -3.625 -5.876 #H2E
29 6 3 0.00000 -3.003 -3.050 -6.321 #H2N
30 6 3 0.00000 -2.897 -3.618 -5.881 #H2N
31 7 1 -0.74640 -5.708 -10.224 1.566 #H2G
32 7 2 0.37320 -5.492 -10.505 1.454 #H2E
33 7 2 0.37320 -5.923 -9.943 1.675 #H2E
34 7 3 0.00000 -5.497 -10.499 1.457 #H2N
35 7 3 0.00000 -5.918 -9.948 1.673 #H2N
36 8 1 -0.74640 -10.334 7.824 9.765 #H2G
37 8 2 0.37320 -9.973 7.810 9.851 #H2E
38 8 2 0.37320 -10.695 7.838 9.679 #H2E
39 8 3 0.00000 -9.982 7.810 9.849 #H2N
40 8 3 0.00000 -10.687 7.838 9.681 #H2N
41 9 1 -0.74640 -4.060 1.418 4.312 #H2G
42 9 2 0.37320 -4.014 1.314 3.959 #H2E
43 9 2 0.37320 -4.107 1.524 4.664 #H2E
44 9 3 0.00000 -4.014 1.316 3.967 #H2N
45 9 3 0.00000 -4.106 1.521 4.657 #H2N
46 10 1 -0.74640 -0.129 2.863 4.113 #H2G
47 10 2 0.37320 -0.226 3.221 4.130 #H2E
48 10 2 0.37320 -0.032 2.505 4.098 #H2E
49 10 3 0.00000 -0.223 3.213 4.129 #H2N
50 10 3 0.00000 -0.035 2.512 4.097 #H2N
51 11 1 -0.74640 -7.031 -0.359 3.685 #H2G
52 11 2 0.37320 -7.104 -0.376 4.049 #H2E
53 11 2 0.37320 -6.958 -0.344 3.323 #H2E
54 11 3 0.00000 -7.103 -0.375 4.040 #H2N
55 11 3 0.00000 -6.959 -0.345 3.330 #H2N
56 12 1 -0.74640 -3.090 -5.833 8.298 #H2G
57 12 2 0.37320 -3.219 -5.804 7.951 #H2E
58 12 2 0.37320 -2.961 -5.862 8.644 #H2E
59 12 3 0.00000 -3.217 -5.804 7.959 #H2N
60 12 3 0.00000 -2.963 -5.862 8.636 #H2N
61 13 1 -0.74640 0.515 -9.487 7.109 #H2G
62 13 2 0.37320 0.259 -9.701 6.947 #H2E
63 13 2 0.37320 0.771 -9.272 7.271 #H2E
64 13 3 0.00000 0.265 -9.695 6.951 #H2N
65 13 3 0.00000 0.766 -9.276 7.266 #H2N
66 14 1 -0.74640 -3.553 10.520 4.381 #H2G
67 14 2 0.37320 -3.607 10.673 4.046 #H2E
68 14 2 0.37320 -3.499 10.368 4.714 #H2E
69 14 3 0.00000 -3.606 10.671 4.054 #H2N
70 14 3 0.00000 -3.501 10.371 4.708 #H2N
71 15 1 -0.74640 0.982 -2.923 -0.993 #H2G
72 15 2 0.37320 0.746 -2.666 -0.863 #H2E
73 15 2 0.37320 1.215 -3.180 -1.121 #H2E
74 15 3 0.00000 0.751 -2.673 -0.866 #H2N
75 15 3 0.00000 1.212 -3.175 -1.118 #H2N
76 16 1 -0.74640 1.759 -0.042 7.168 #H2G
77 16 2 0.37320 1.610 -0.094 6.832 #H2E
78 16 2 0.37320 1.907 0.010 7.504 #H2E
79 16 3 0.00000 1.614 -0.093 6.839 #H2N
80 16 3 0.00000 1.903 0.009 7.496 #H2N
81 17 1 -0.74640 0.048 3.154 -0.952 #H2G
82 17 2 0.37320 0.301 3.424 -0.985 #H2E
83 17 2 0.37320 -0.204 2.884 -0.919 #H2E
84 17 3 0.00000 0.295 3.417 -0.984 #H2N
85 17 3 0.00000 -0.200 2.890 -0.921 #H2N
86 18 1 -0.74640 -4.777 5.098 3.139 #H2G
87 18 2 0.37320 -4.962 5.245 3.424 #H2E
88 18 2 0.37320 -4.591 4.952 2.853 #H2E
89 18 3 0.00000 -4.957 5.242 3.418 #H2N
90 18 3 0.00000 -4.595 4.955 2.859 #H2N
91 19 1 -0.74640 -8.698 7.564 6.853 #H2G
92 19 2 0.37320 -8.364 7.555 7.014 #H2E
93 19 2 0.37320 -9.031 7.572 6.693 #H2E
94 19 3 0.00000 -8.372 7.555 7.011 #H2N
95 19 3 0.00000 -9.025 7.573 6.695 #H2N
96 20 1 -0.74640 9.535 8.222 6.876 #H2G
97 20 2 0.37320 9.361 8.386 7.160 #H2E
98 20 2 0.37320 9.709 8.058 6.594 #H2E
99 20 3 0.00000 9.364 8.381 7.155 #H2N
100 20 3 0.00000 9.705 8.061 6.599 #H2N
101 21 1 -0.74640 0.840 5.276 8.104 #H2G
102 21 2 0.37320 1.026 5.072 7.854 #H2E
103 21 2 0.37320 0.656 5.479 8.353 #H2E
104 21 3 0.00000 1.021 5.078 7.859 #H2N
105 21 3 0.00000 0.660 5.474 8.347 #H2N
106 22 1 -0.74640 -7.296 -8.489 -4.925 #H2G
107 22 2 0.37320 -7.203 -8.782 -4.716 #H2E
108 22 2 0.37320 -7.386 -8.198 -5.135 #H2E
109 22 3 0.00000 -7.206 -8.774 -4.720 #H2N
110 22 3 0.00000 -7.385 -8.203 -5.131 #H2N
111 23 1 -0.74640 9.974 -2.044 7.817 #H2G
112 23 2 0.37320 9.679 -2.269 7.828 #H2E
113 23 2 0.37320 10.269 -1.819 7.806 #H2E
114 23 3 0.00000 9.685 -2.263 7.827 #H2N
115 23 3 0.00000 10.262 -1.824 7.806 #H2N
116 24 1 -0.74640 -0.952 5.952 1.548 #H2G
117 24 2 0.37320 -0.811 5.610 1.587 #H2E
118 24 2 0.37320 -1.093 6.292 1.508 #H2E
119 24 3 0.00000 -0.816 5.618 1.586 #H2N
120 24 3 0.00000 -1.090 6.285 1.509 #H2N
121 25 1 -0.74640 -4.300 6.463 -9.110 #H2G
122 25 2 0.37320 -4.521 6.450 -8.812 #H2E
123 25 2 0.37320 -4.077 6.476 -9.407 #H2E
124 25 3 0.00000 -4.516 6.450 -8.820 #H2N
125 25 3 0.00000 -4.083 6.476 -9.401 #H2N
126 26 1 -0.74640 8.191 0.099 0.952 #H2G
127 26 2 0.37320 7.889 0.139 0.741 #H2E
128 26 2 0.37320 8.494 0.058 1.163 #H2E
129 26 3 0.00000 7.896 0.138 0.746 #H2N
130 26 3 0.00000 8.487 0.060 1.158 #H2N
131 27 1 -0.74640 9.140 7.241 -0.819 #H2G
132 27 2 0.37320 8.947 6.971 -0.652 #H2E
133 27 2 0.37320 9.334 7.509 -0.985 #H2E
134 27 3 0.00000 8.951 6.978 -0.656 #H2N
135 27 3 0.00000 9.330 7.503 -0.982 #H2N
136 28 1 -0.74640 -9.683 -10.599 3.013 #H2G
137 28 2 0.37320 -9.400 -10.831 3.071 #H2E
138 28 2 0.37320 -9.966 -10.367 2.954 #H2E
139 28 3 0.00000 -9.407 -10.826 3.070 #H2N
140 28 3 0.00000 -9.961 -10.372 2.955 #H2N
141 29 1 -0.74640 3.774 4.438 1.926 #H2G
142 29 2 0.37320 3.933 4.141 2.083 #H2E
143 29 2 0.37320 3.615 4.733 1.768 #H2E
144 29 3 0.00000 3.930 4.147 2.079 #H2N
145 29 3 0.00000 3.618 4.727 1.771 #H2N
146 30 1 -0.74640 10.176 7.036 -4.053 #H2G
147 30 2 0.37320 9.872 6.917 -4.231 #H2E
148 30 2 0.37320 10.480 7.154 -3.878 #H2E
149 30 3 0.00000 9.879 6.920 -4.226 #H2N
150 30 3 0.00000 10.474 7.152 -3.880 #H2N
151 31 1 -0.74640 0.777 -7.147 -3.214 #H2G
152 31 2 0.37320 0.748 -6.911 -2.929 #H2E
153 31 2 0.37320 0.807 -7.382 -3.498 #H2E
154 31 3 0.00000 0.748 -6.917 -2.936 #H2N
155 31 3 0.00000 0.807 -7.378 -3.493 #H2N
156 32 1 -0.74640 7.706 -5.132 3.554 #H2G
157 32 2 0.37320 7.578 -4.870 3.323 #H2E
158 32 2 0.37320 7.834 -5.392 3.784 #H2E
159 32 3 0.00000 7.580 -4.876 3.328 #H2N
160 32 3 0.00000 7.832 -5.386 3.779 #H2N
161 33 1 -0.74640 5.619 1.461 -2.114 #H2G
162 33 2 0.37320 5.491 1.809 -2.099 #H2E
163 33 2 0.37320 5.746 1.113 -2.128 #H2E
164 33 3 0.00000 5.493 1.801 -2.100 #H2N
165 33 3 0.00000 5.744 1.120 -2.128 #H2N
166 34 1 -0.74640 -1.466 -7.086 2.442 #H2G
167 34 2 0.37320 -1.769 -7.054 2.654 #H2E
168 34 2 0.37320 -1.163 -7.116 2.230 #H2E
169 34 3 0.00000 -1.762 -7.054 2.650 #H2N
170 34 3 0.00000 -1.169 -7.116 2.235 #H2N
171 35 1 -0.74640 -6.837 1.971 0.044 #H2G
172 35 2 0.37320 -6.755 1.871 -0.304 #H2E
173 35 2 0.37320 -6.921 2.071 0.392 #H2E
174 35 3 0.00000 -6.756 1.873 -0.295 #H2N
175 35 3 0.00000 -6.918 2.069 0.385 #H2N
176 36 1 -0.74640 4.996 -3.275 -10.193 #H2G
177 36 2 0.37320 5.224 -2.991 -10.265 #H2E
178 36 2 0.37320 4.768 -3.559 -10.121 #H2E
179 36 3 0.00000 5.219 -2.997 -10.263 #H2N
180 36 3 0.00000 4.773 -3.553 -10.123 #H2N
181 37 1 -0.74640 9.413 2.021 7.547 #H2G
182 37 2 0.37320 9.392 1.782 7.264 #H2E
183 37 2 0.37320 9.433 2.259 7.831 #H2E
184 37 3 0.00000 9.393 1.788 7.270 #H2N
185 37 3 0.00000 9.434 2.254 7.825 #H2N
186 38 1 -0.74640 7.670 10.450 -2.705 #H2G
187 38 2 0.37320 7.953 10.577 -2.501 #H2E
188 38 2 0.37320 7.386 10.324 -2.908 #H2E
189 38 3 0.00000 7.946 10.575 -2.506 #H2N
190 38 3 0.00000 7.392 10.326 -2.904 #H2N
191 39 1 -0.74640 1.132 8.441 -6.309 #H2G
192 39 2 0.37320 0.986 8.265 -6.017 #H2E
193 39 2 0.37320 1.277 8.617 -6.601 #H2E
194 39 3 0.00000 0.989 8.269 -6.023 #H2N
195 39 3 0.00000 1.273 8.614 -6.595 #H2N
196 40 1 -0.74640 7.977 -6.337 -6.504 #H2G
197 40 2 0.37320 8.022 -6.606 -6.251 #H2E
198 40 2 0.37320 7.932 -6.069 -6.755 #H2E
199 40 3 0.00000 8.021 -6.599 -6.257 #H2N
200 40 3 0.00000 7.933 -6.074 -6.750 #H2N
201 41 1 -0.74640 -10.534 -3.484 3.059 #H2G
202 41 2 0.37320 -10.389 -3.425 3.395 #H2E
203 41 2 0.37320 -10.677 -3.542 2.722 #H2E
204 41 3 0.00000 -10.392 -3.426 3.388 #H2N
205 41 3 0.00000 -10.675 -3.541 2.730 #H2N
206 42 1 -0.74640 -2.947 10.461 -8.816 #H2G
207 42 2 0.37320 -2.715 10.292 -9.051 #H2E
208 42 2 0.37320 -3.177 10.629 -8.580 #H2E
209 42 3 0.00000 -2.720 10.296 -9.046 #H2N
210 42 3 0.00000 -3.173 10.626 -8.585 #H2N
211 43 1 -0.74640 0.374 9.938 10.159 #H2G
212 43 2 0.37320 0.041 9.781 10.120 #H2E
213 43 2 0.37320 0.708 10.095 10.198 #H2E
214 43 3 0.00000 0.048 9.784 10.121 #H2N
215 43 3 0.00000 0.701 10.092 10.197 #H2N
216 44 1 -0.74640 9.904 -4.905 -3.719 #H2G
217 44 2 0.37320 9.858 -4.573 -3.878 #H2E
218 44 2 0.37320 9.950 -5.237 -3.561 #H2E
219 44 3 0.00000 9.859 -4.580 -3.875 #H2N
220 44 3 0.00000 9.950 -5.230 -3.564 #H2N
221 45 1 -0.74640 -2.778 5.461 9.533 #H2G
222 45 2 0.37320 -3.040 5.535 9.785 #H2E
223 45 2 0.37320 -2.517 5.389 9.281 #H2E
224 45 3 0.00000 -3.034 5.533 9.781 #H2N
225 45 3 0.00000 -2.522 5.391 9.286 #H2N
226 46 1 -0.74640 -4.558 -5.540 -7.891 #H2G
227 46 2 0.37320 -4.410 -5.325 -7.627 #H2E
228 46 2 0.37320 -4.705 -5.754 -8.153 #H2E
229 46 3 0.00000 -4.413 -5.329 -7.632 #H2N
230 46 3 0.00000 -4.703 -5.750 -8.149 #H2N
231 47 1 -0.74640 -7.670 5.991 -8.245 #H2G
232 47 2 0.37320 -7.490 5.752 -8.465 #H2E
233 47 2 0.37320 -7.847 6.231 -8.026 #H2E
234 47 3 0.00000 -7.493 5.757 -8.460 #H2N
235 47 3 0.00000 -7.843 6.225 -8.030 #H2N
236 48 1 -0.74640 4.658 -4.629 -7.398 #H2G
237 48 2 0.37320 4.402 -4.830 -7.221 #H2E
238 48 2 0.37320 4.914 -4.427 -7.575 #H2E
239 48 3 0.00000 4.407 -4.826 -7.225 #H2N
240 48 3 0.00000 4.909 -4.432 -7.571 #H2N
241 49 1 -0.74640 3.292 2.397 5.178 #H2G
242 49 2 0.37320 3.542 2.468 4.912 #H2E
243 49 2 0.37320 3.041 2.326 5.442 #H2E
244 49 3 0.00000 3.536 2.467 4.919 #H2N
245 49 3 0.00000 3.047 2.327 5.437 #H2N
246 50 1 -0.74640 8.992 -8.677 0.286 #H2G
247 50 2 0.37320 9.265 -8.882 0.431 #H2E
248 50 2 0.37320 8.719 -8.471 0.141 #H2E
249 50 3 0.00000 9.259 -8.878 0.427 #H2N
250 50 3 0.00000 8.726 -8.475 0.144 #H2N
251 51 1 -0.74640 9.782 -6.838 5.052 #H2G
252 51 2 0.37320 9.920 -7.180 5.020 #H2E
253 51 2 0.37320 9.643 -6.496 5.085 #H2E
254 51 3 0.00000 9.918 -7.174 5.020 #H2N
255 51 3 0.00000 9.646 -6.503 5.085 #H2N
256 52 1 -0.74640 -9.744 4.732 2.053 #H2G
257 52 2 0.37320 -9.399 4.732 2.190 #H2E
258 52 2 0.37320 -10.088 4.731 1.915 #H2E
259 52 3 0.00000 -9.406 4.732 2.187 #H2N
260 52 3 0.00000 -10.081 4.732 1.918 #H2N
261 53 1 -0.74640 7.849 -7.436 -3.283 #H2G
262 53 2 0.37320 7.671 -7.642 -3.032 #H2E
263 53 2 0.37320 8.029 -7.227 -3.533 #H2E
264 53 3 0.00000 7.675 -7.638 -3.038 #H2N
265 53 3 0.00000 8.025 -7.233 -3.529 #H2N
266 54 1 -0.74640 -1.810 3.402 -8.387 #H2G
267 54 2 0.37320 -2.117 3.588 -8.482 #H2E
268 54 2 0.37320 -1.504 3.216 -8.289 #H2E
269 54 3 0.00000 -2.110 3.583 -8.481 #H2N
270 54 3 0.00000 -1.511 3.220 -8.292 #H2N
271 55 1 -0.74640 -4.305 9.640 9.704 #H2G
272 55 2 0.37320 -4.024 9.859 9.598 #H2E
273 55 2 0.37320 -4.586 9.421 9.808 #H2E
274 55 3 0.00000 -4.031 9.853 9.599 #H2N
275 55 3 0.00000 -4.579 9.426 9.807 #H2N
276 56 1 -0.74640 5.683 -1.198 -6.022 #H2G
277 56 2 0.37320 5.982 -1.007 -5.915 #H2E
278 56 2 0.37320 5.383 -1.389 -6.129 #H2E
279 56 3 0.00000 5.976 -1.012 -5.918 #H2N
280 56 3 0.00000 5.390 -1.386 -6.126 #H2N
281 57 1 -0.74640 2.038 -5.772 8.533 #H2G
282 57 2 0.37320 2.348 -5.757 8.330 #H2E
283 57 2 0.37320 1.727 -5.786 8.736 #H2E
284 57 3 0.00000 2.341 -5.757 8.334 #H2N
285 57 3 0.00000 1.733 -5.786 8.731 #H2N
286 58 1 -0.74640 8.846 3.928 -1.355 #H2G
287 58 2 0.37320 8.743 3.731 -1.652 #H2E
288 58 2 0.37320 8.947 4.127 -1.058 #H2E
289 58 3 0.00000 8.746 3.734 -1.644 #H2N
290 58 3 0.00000 8.945 4.122 -1.064 #H2N
291 59 1 -0.74640 0.498 -6.941 -7.716 #H2G
292 59 2 0.37320 0.782 -6.846 -7.497 #H2E
293 59 2 0.37320 0.215 -7.037 -7.937 #H2E
294 59 3 0.00000 0.775 -6.849 -7.501 #H2N
295 59 3 0.00000 0.221 -7.035 -7.931 #H2N
296 60 1 -0.74640 -9.536 -6.858 2.529 #H2G
297 60 2 0.37320 -9.360 -6.971 2.223 #H2E
298 60 2 0.37320 -9.712 -6.744 2.835 #H2E
299 60 3 0.00000 -9.363 -6.969 2.231 #H2N
300 60 3 0.00000 -9.708 -6.747 2.829 #H2N
301 61 1 -0.74640 -8.178 1.392 10.555 #H2G
302 61 2 0.37320 -7.874 1.448 10.349 #H2E
303 61 2 0.37320 -8.482 1.337 10.759 #H2E
304 61 3 0.00000 -7.880 1.447 10.353 #H2N
305 61 3 0.00000 -8.475 1.339 10.755 #H2N
306 62 1 -0.74640 7.229 8.171 -6.373 #H2G
307 62 2 0.37320 7.504 8.314 -6.166 #H2E
308 62 2 0.37320 6.955 8.029 -6.579 #H2E
309 62 3 0.00000 7.497 8.311 -6.171 #H2N
310 62 3 0.00000 6.961 8.033 -6.573 #H2N
311 63 1 -0.74640 3.717 3.666 9.997 #H2G
312 63 2 0.37320 3.865 4.001 9.934 #H2E
313 63 2 0.37320 3.567 3.332 10.059 #H2E
314 63 3 0.00000 3.862 3.993 9.935 #H2N
315 63 3 0.00000 3.572 3.339 10.058 #H2N
316 64 1 -0.74640 -9.693 4.535 -10.718 #H2G
317 64 2 0.37320 -9.363 4.368 -10.756 #H2E
318 64 2 0.37320 -10.022 4.701 -10.682 #H2E
319 64 3 0.00000 -9.370 4.372 -10.755 #H2N
320 64 3 0.00000 -10.015 4.698 -10.682 #H2N
321 65 1 -0.74640 -5.851 -4.459 4.601 #H2G
322 65 2 0.37320 -5.959 -4.801 4.509 #H2E
323 65 2 0.37320 -5.743 -4.116 4.695 #H2E
324 65 3 0.00000 -5.956 -4.794 4.510 #H2N
325 65 3 0.00000 -5.745 -4.123 4.693 #H2N
326 66 1 -0.74640 2.934 -0.407 -2.390 #H2G
327 66 2 0.37320 2.907 -0.221 -2.070 #H2E
328 66 2 0.37320 2.964 -0.593 -2.710 #H2E
329 66 3 0.00000 2.906 -0.225 -2.077 #H2N
330 66 3 0.00000 2.963 -0.589 -2.703 #H2N
331 67 1 -0.74640 8.374 1.873 3.759 #H2G
332 67 2 0.37320 8.402 1.635 4.042 #H2E
333 67 2 0.37320 8.345 2.113 3.478 #H2E
334 67 3 0.00000 8.402 1.640 4.036 #H2N
335 67 3 0.00000 8.346 2.108 3.483 #H2N
336 68 1 -0.74640 0.617 10.752 -0.060 #H2G
337 68 2 0.37320 0.589 11.009 0.207 #H2E
338 68 2 0.37320 0.647 10.496 -0.327 #H2E
339 68 3 0.00000 0.589 11.003 0.201 #H2N
340 68 3 0.00000 0.645 10.501 -0.322 #H2N
341 69 1 -0.74640 3.991 5.461 7.545 #H2G
342 69 2 0.37320 4.072 5.629 7.866 #H2E
343 69 2 0.37320 3.911 5.295 7.222 #H2E
344 69 3 0.00000 4.069 5.624 7.860 #H2N
345 69 3 0.00000 3.914 5.299 7.230 #H2N
346 70 1 -0.74640 5.607 5.890 -2.679 #H2G
347 70 2 0.37320 5.333 6.128 -2.601 #H2E
348 70 2 0.37320 5.882 5.652 -2.756 #H2E
349 70 3 0.00000 5.338 6.122 -2.603 #H2N
350 70 3 0.00000 5.875 5.657 -2.755 #H2N
351 71 1 -0.74640 -6.213 -6.202 8.241 #H2G
352 71 2 0.37320 -6.353 -6.439 8.490 #H2E
353 71 2 0.37320 -6.073 -5.964 7.993 #H2E
354 71 3 0.00000 -6.349 -6.435 8.485 #H2N
355 71 3 0.00000 -6.076 -5.969 7.999 #H2N
356 72 1 -0.74640 -8.243 2.408 -4.934 #H2G
357 72 2 0.37320 -8.394 2.070 -4.965 #H2E
358 72 2 0.37320 -8.093 2.746 -4.905 #H2E
359 72 3 0.00000 -8.391 2.077 -4.963 #H2N
360 72 3 0.00000 -8.096 2.739 -4.905 #H2N
361 73 1 -0.74640 4.064 3.139 -5.349 #H2G
362 73 2 0.37320 4.031 2.990 -5.011 #H2E
363 73 2 0.37320 4.097 3.288 -5.688 #H2E
364 73 3 0.00000 4.030 2.993 -5.018 #H2N
365 73 3 0.00000 4.096 3.285 -5.680 #H2N
366 74 1 -0.74640 -5.106 8.193 2.179 #H2G
367 74 2 0.37320 -5.270 8.516 2.258 #H2E
368 74 2 0.37320 -4.942 7.870 2.100 #H2E
369 74 3 0.00000 -5.266 8.509 2.257 #H2N
370 74 3 0.00000 -4.945 7.876 2.101 #H2N
371 75 1 -0.74640 4.280 -2.352 2.498 #H2G
372 75 2 0.37320 4.644 -2.284 2.490 #H2E
373 75 2 0.37320 3.915 -2.421 2.508 #H2E
374 75 3 0.00000 4.637 -2.285 2.490 #H2N
375 75 3 0.00000 3.922 -2.419 2.507 #H2N
376 76 1 -0.74640 -6.143 -7.856 -9.748 #H2G
377 76 2 0.37320 -6.416 -8.057 -9.597 #H2E
378 76 2 0.37320 -5.869 -7.654 -9.899 #H2E
379 76 3 0.00000 -6.410 -8.052 -9.601 #H2N
380 76 3 0.00000 -5.876 -7.659 -9.896 #H2N
381 77 1 -0.74640 -0.470 5.557 -6.185 #H2G
382 77 2 0.37320 -0.477 5.242 -5.990 #H2E
383 77 2 0.37320 -0.464 5.873 -6.381 #H2E
384 77 3 0.00000 -0.476 5.248 -5.995 #H2N
385 77 3 0.00000 -0.463 5.866 -6.376 #H2N
386 78 1 -0.74640 9.043 8.338 1.961 #H2G
387 78 2 0.37320 9.071 7.968 1.980 #H2E
388 78 2 0.37320 9.017 8.708 1.942 #H2E
389 78 3 0.00000 9.069 7.976 1.980 #H2N
390 78 3 0.00000 9.018 8.700 1.942 #H2N
391 79 1 -0.74640 2.127 7.470 -10.165 #H2G
392 79 2 0.37320 2.034 7.156 -9.992 #H2E
393 79 2 0.37320 2.221 7.784 -10.339 #H2E
394 79 3 0.00000 2.036 7.162 -9.996 #H2N
395 79 3 0.00000 2.219 7.777 -10.336 #H2N
396 80 1 -0.74640 3.999 6.563 -5.723 #H2G
397 80 2 0.37320 3.676 6.635 -5.890 #H2E
398 80 2 0.37320 4.323 6.493 -5.556 #H2E
399 80 3 0.00000 3.683 6.633 -5.887 #H2N
400 80 3 0.00000 4.315 6.495 -5.559 #H2N
401 81 1 -0.74640 1.475 10.453 3.884 #H2G
402 81 2 0.37320 1.681 10.167 3.771 #H2E
403 81 2 0.37320 1.270 10.741 3.998 #H2E
404 81 3 0.00000 1.676 10.172 3.773 #H2N
405 81 3 0.00000 1.274 10.735 3.995 #H2N
406 82 1 -0.74640 -5.309 -0.563 10.314 #H2G
407 82 2 0.37320 -5.374 -0.905 10.186 #H2E
408 82 2 0.37320 -5.242 -0.221 10.443 #H2E
409 82 3 0.00000 -5.373 -0.897 10.188 #H2N
410 82 3 0.00000 -5.244 -0.228 10.440 #H2N
411 83 1 -0.74640 6.508 -2.763 8.071 #H2G
412 83 2 0.37320 6.402 -2.489 8.297 #H2E
413 83 2 0.37320 6.612 -3.039 7.845 #H2E
414 83 3 0.00000 6.405 -2.495 8.292 #H2N
415 83 3 0.00000 6.610 -3.033 7.850 #H2N
416 84 1 -0.74640 3.537 -8.427 9.327 #H2G
417 84 2 0.37320 3.739 -8.256 9.068 #H2E
418 84 2 0.37320 3.334 -8.598 9.587 #H2E
419 84 3 0.00000 3.735 -8.260 9.074 #H2N
420 84 3 0.00000 3.338 -8.594 9.581 #H2N
421 85 1 -0.74640 8.205 -10.289 3.302 #H2G
422 85 2 0.37320 8.228 -10.056 3.015 #H2E
423 85 2 0.37320 8.183 -10.523 3.589 #H2E
424 85 3 0.00000 8.227 -10.061 3.021 #H2N
425 85 3 0.00000 8.183 -10.519 3.583 #H2N
426 86 1 -0.74640 -1.251 7.508 -9.948 #H2G
427 86 2 0.37320 -1.530 7.749 -9.910 #H2E
428 86 2 0.37320 -0.972 7.265 -9.986 #H2E
429 86 3 0.00000 -1.524 7.744 -9.911 #H2N
430 86 3 0.00000 -0.978 7.271 -9.987 #H2N
431 87 1 -0.74640 -9.098 6.966 -0.849 #H2G
432 87 2 0.37320 -8.981 6.622 -0.777 #H2E
433 87 2 0.37320 -9.215 7.312 -0.918 #H2E
434 87 3 0.00000 -8.984 6.629 -0.779 #H2N
435 87 3 0.00000 -9.212 7.305 -0.917 #H2N
436 88 1 -0.74640 -2.599 9.503 0.674 #H2G
437 88 2 0.37320 -2.690 9.166 0.549 #H2E
438 88 2 0.37320 -2.509 9.841 0.798 #H2E
439 88 3 0.00000 -2.687 9.172 0.552 #H2N
440 88 3 0.00000 -2.512 9.834 0.796 #H2N
441 89 1 -0.74640 -5.412 -0.602 -3.145 #H2G
442 89 2 0.37320 -5.393 -0.894 -2.917 #H2E
443 89 2 0.37320 -5.432 -0.310 -3.373 #H2E
444 89 3 0.00000 -5.393 -0.888 -2.922 #H2N
445 89 3 0.00000 -5.432 -0.316 -3.368 #H2N
446 90 1 -0.74640 9.537 -2.136 -6.367 #H2G
447 90 2 0.37320 9.235 -2.171 -6.580 #H2E
448 90 2 0.37320 9.838 -2.103 -6.154 #H2E
449 90 3 0.00000 9.241 -2.170 -6.575 #H2N
450 90 3 0.00000 9.833 -2.103 -6.159 #H2N
451 91 1 -0.74640 -9.399 7.784 2.122 #H2G
452 91 2 0.37320 -9.060 7.905 2.037 #H2E
453 91 2 0.37320 -9.739 7.662 2.206 #H2E
454 91 3 0.00000 -9.066 7.902 2.038 #H2N
455 91 3 0.00000 -9.733 7.665 2.205 #H2N
456 92 1 -0.74640 -7.821 -6.079 -1.727 #H2G
457 92 2 0.37320 -7.795 -6.096 -1.359 #H2E
458 92 2 0.37320 -7.846 -6.063 -2.097 #H2E
459 92 3 0.00000 -7.795 -6.095 -1.366 #H2N
460 92 3 0.00000 -7.846 -6.064 -2.089 #H2N
461 93 1 -0.74640 2.299 -2.801 -5.412 #H2G
462 93 2 0.37320 2.415 -3.150 -5.453 #H2E
463 93 2 0.37320 2.183 -2.450 -5.371 #H2E
464 93 3 0.00000 2.413 -3.143 -5.452 #H2N
465 93 3 0.00000 2.185 -2.457 -5.372 #H2N
466 94 1 -0.74640 -6.144 9.525 -8.405 #H2G
467 94 2 0.37320 -6.151 9.162 -8.482 #H2E
468 94 2 0.37320 -6.138 9.887 -8.325 #H2E
469 94 3 0.00000 -6.150 9.170 -8.480 #H2N
470 94 3 0.00000 -6.138 9.879 -8.327 #H2N
471 95 1 -0.74640 -2.069 7.756 7.610 #H2G
472 95 2 0.37320 -1.935 7.924 7.308 #H2E
473 95 2 0.37320 -2.202 7.587 7.912 #H2E
474 95 3 0.00000 -1.937 7.920 7.313 #H2N
475 95 3 0.00000 -2.199 7.591 7.906 #H2N
476 96 1 -0.74640 1.174 -3.312 5.265 #H2G
477 96 2 0.37320 1.318 -3.653 5.271 #H2E
478 96 2 0.37320 1.030 -2.970 5.257 #H2E
479 96 3 0.00000 1.315 -3.646 5.272 #H2N
480 96 3 0.00000 1.033 -2.978 5.257 #H2N
481 97 1 -0.74640 -6.691 -5.194 -5.064 #H2G
482 97 2 0.37320 -6.597 -4.839 -5.014 #H2E
483 97 2 0.37320 -6.782 -5.550 -5.112 #H2E
484 97 3 0.00000 -6.599 -4.845 -5.016 #H2N
485 97 3 0.00000 -6.780 -5.542 -5.111 #H2N
486 98 1 -0.74640 5.330 8.110 2.616 #H2G
487 98 2 0.37320 5.266 8.063 2.254 #H2E
488 98 2 0.37320 5.395 8.156 2.979 #H2E
489 98 3 0.00000 5.267 8.064 2.261 #H2N
490 98 3 0.00000 5.394 8.155 2.970 #H2N
491 99 1 -0.74640 9.474 10.729 -7.254 #H2G
492 99 2 0.37320 9.644 10.676 -7.579 #H2E
493 99 2 0.37320 9.304 10.784 -6.929 #H2E
494 99 3 0.00000 9.640 10.677 -7.573 #H2N
495 99 3 0.00000 9.307 10.783 -6.937 #H2N
496 100 1 -0.74640 -6.327 5.833 10.355 #H2G
497 100 2 0.37320 -5.979 5.860 10.233 #H2E
498 100 2 0.37320 -6.676 5.806 10.480 #H2E
499 100 3 0.00000 -5.986 5.860 10.234 #H2N
500 100 3 0.00000 -6.668 5.805 10.476 #H2N
501 101 1 -0.74640 4.280 0.691 2.261 #H2G
502 101 2 0.37320 3.933 0.601 2.352 #H2E
503 101 2 0.37320 4.629 0.782 2.171 #H2E
504 101 3 0.00000 3.941 0.603 2.350 #H2N
505 101 3 0.00000 4.622 0.779 2.173 #H2N
506 102 1 -0.74640 0.478 1.316 -10.639 #H2G
507 102 2 0.37320 0.707 1.546 -10.460 #H2E
508 102 2 0.37320 0.250 1.085 -10.819 #H2E
509 102 3 0.00000 0.701 1.541 -10.463 #H2N
510 102 3 0.00000 0.255 1.090 -10.815 #H2N
511 103 1 -0.74640 -2.834 -6.397 -2.335 #H2G
512 103 2 0.37320 -2.714 -6.101 -2.147 #H2E
513 103 2 0.37320 -2.954 -6.693 -2.524 #H2E
514 103 3 0.00000 -2.716 -6.106 -2.152 #H2N
515 103 3 0.00000 -2.951 -6.687 -2.518 #H2N
516 104 1 -0.74640 -4.654 -5.299 0.526 #H2G
517 104 2 0.37320 -4.659 -5.310 0.156 #H2E
518 104 2 0.37320 -4.649 -5.288 0.897 #H2E
519 104 3 0.00000 -4.658 -5.310 0.164 #H2N
520 104 3 0.00000 -4.649 -5.289 0.888 #H2N
521 105 1 -0.74640 10.401 -9.332 -10.257 #H2G
522 105 2 0.37320 10.125 -9.521 -10.417 #H2E
523 105 2 0.37320 10.678 -9.142 -10.097 #H2E
524 105 3 0.00000 10.131 -9.517 -10.413 #H2N
525 105 3 0.00000 10.670 -9.146 -10.101 #H2N
526 106 1 -0.74640 -9.030 10.661 -1.777 #H2G
527 106 2 0.37320 -9.025 10.474 -2.096 #H2E
528 106 2 0.37320 -9.036 10.848 -1.456 #H2E
529 106 3 0.00000 -9.025 10.478 -2.090 #H2N
530 106 3 0.00000 -9.036 10.844 -1.464 #H2N
531 107 1 -0.74640 -5.520 4.449 -6.739 #H2G
532 107 2 0.37320 -5.748 4.355 -7.015 #H2E
533 107 2 0.37320 -5.289 4.544 -6.464 #H2E
534 107 3 0.00000 -5.744 4.358 -7.009 #H2N
535 107 3 0.00000 -5.295 4.541 -6.470 #H2N
536 108 1 -0.74640 -5.319 -1.986 6.771 #H2G
537 108 2 0.37320 -5.076 -1.735 6.894 #H2E
538 108 2 0.37320 -5.563 -2.236 6.646 #H2E
539 108 3 0.00000 -5.081 -1.741 6.892 #H2N
540 108 3 0.00000 -5.557 -2.231 6.649 #H2N
541 109 1 -0.74640 9.868 6.468 -7.682 #H2G
542 109 2 0.37320 9.693 6.659 -7.418 #H2E
543 109 2 0.37320 10.041 6.275 -7.948 #H2E
544 109 3 0.00000 9.697 6.656 -7.423 #H2N
545 109 3 0.00000 10.037 6.280 -7.942 #H2N
546 110 1 -0.74640 10.397 1.072 -6.299 #H2G
547 110 2 0.37320 10.492 1.001 -5.948 #H2E
548 110 2 0.37320 10.304 1.141 -6.651 #H2E
549 110 3 0.00000 10.490 1.003 -5.955 #H2N
550 110 3 0.00000 10.305 1.140 -6.644 #H2N
551 111 1 -0.74640 -4.394 -8.878 -6.525 #H2G
552 111 2 0.37320 -4.574 -9.035 -6.242 #H2E
553 111 2 0.37320 -4.215 -8.720 -6.810 #H2E
554 111 3 0.00000 -4.570 -9.032 -6.248 #H2N
555 111 3 0.00000 -4.220 -8.724 -6.803 #H2N
556 112 1 -0.74640 7.103 1.043 -7.936 #H2G
557 112 2 0.37320 7.369 1.198 -8.143 #H2E
558 112 2 0.37320 6.837 0.887 -7.730 #H2E
559 112 3 0.00000 7.363 1.196 -8.139 #H2N
560 112 3 0.00000 6.843 0.892 -7.734 #H2N
561 113 1 -0.74640 -5.984 -1.654 0.370 #H2G
562 113 2 0.37320 -5.937 -1.408 0.097 #H2E
563 113 2 0.37320 -6.032 -1.901 0.644 #H2E
564 113 3 0.00000 -5.937 -1.414 0.102 #H2N
565 113 3 0.00000 -6.030 -1.895 0.638 #H2N
566 114 1 -0.74640 -0.121 -3.495 2.126 #H2G
567 114 2 0.37320 0.056 -3.340 1.839 #H2E
568 114 2 0.37320 -0.298 -3.652 2.412 #H2E
569 114 3 0.00000 0.051 -3.343 1.846 #H2N
570 114 3 0.00000 -0.294 -3.648 2.407 #H2N
571 115 1 -0.74640 -5.315 6.697 5.917 #H2G
572 115 2 0.37320 -5.507 6.747 6.231 #H2E
573 115 2 0.37320 -5.124 6.647 5.603 #H2E
574 115 3 0.00000 -5.503 6.746 6.224 #H2N
575 115 3 0.00000 -5.128 6.648 5.611 #H2N
576 116 1 -0.74640 -9.628 -10.255 -4.915 #H2G
577 116 2 0.37320 -9.813 -10.240 -4.595 #H2E
578 116 2 0.37320 -9.443 -10.271 -5.237 #H2E
579 116 3 0.00000 -9.809 -10.240 -4.601 #H2N
580 116 3 0.00000 -9.447 -10.271 -5.230 #H2N
581 117 1 -0.74640 -0.713 -6.001 5.970 #H2G
582 117 2 0.37320 -0.374 -6.093 5.848 #H2E
583 117 2 0.37320 -1.050 -5.909 6.091 #H2E
584 117 3 0.00000 -0.382 -6.092 5.851 #H2N
585 117 3 0.00000 -1.043 -5.911 6.089 #H2N
586 118 1 -0.74640 6.044 -3.068 -0.785 #H2G
587 118 2 0.37320 6.246 -3.233 -1.049 #H2E
588 118 2 0.37320 5.840 -2.904 -0.522 #H2E
589 118 3 0.00000 6.243 -3.229 -1.044 #H2N
590 118 3 0.00000 5.846 -2.907 -0.528 #H2N
591 119 1 -0.74640 -9.335 -6.078 -6.172 #H2G
592 119 2 0.37320 -9.157 -6.162 -6.487 #H2E
593 119 2 0.37320 -9.514 -5.996 -5.859 #H2E
594 119 3 0.00000 -9.161 -6.159 -6.481 #H2N
595 119 3 0.00000 -9.511 -5.998 -5.865 #H2N
596 120 1 -0.74640 6.669 -8.509 10.753 #H2G
597 120 2 0.37320 6.371 -8.447 10.968 #H2E
598 120 2 0.37320 6.965 -8.571 10.540 #H2E
599 120 3 0.00000 6.378 -8.448 10.963 #H2N
600 120 3 0.00000 6.959 -8.570 10.545 #H2N
601 121 1 -0.74640 -8.765 3.653 7.737 #H2G
602 121 2 0.37320 -9.118 3.584 7.831 #H2E
603 121 2 0.37320 -8.414 3.723 7.645 #H2E
604 121 3 0.00000 -9.110 3.585 7.828 #H2N
605 121 3 0.00000 -8.421 3.722 7.647 #H2N
606 122 1 -0.74640 -2.284 1.221 -0.422 #H2G
607 122 2 0.37320 -1.990 0.994 -0.406 #H2E
608 122 2 0.37320 -2.577 1.447 -0.438 #H2E
609 122 3 0.00000 -1.996 0.999 -0.405 #H2N
610 122 3 0.00000 -2.570 1.443 -0.438 #H2N
611 123 1 -0.74640 10.456 -1.135 -9.723 #H2G
612 123 2 0.37320 10.669 -1.339 -9.498 #H2E
613 123 2 0.37320 10.244 -0.932 -9.949 #H2E
614 123 3 0.00000 10.665 -1.333 -9.502 #H2N
615 123 3 0.00000 10.249 -0.935 -9.945 #H2N
616 124 1 -0.74640 4.310 0.394 -9.386 #H2G
617 124 2 0.37320 3.954 0.503 -9.389 #H2E
618 124 2 0.37320 4.663 0.286 -9.382 #H2E
619 124 3 0.00000 3.962 0.500 -9.389 #H2N
620 124 3 0.00000 4.656 0.289 -9.383 #H2N
621 125 1 -0.74640 -2.323 5.405 -1.630 #H2G
622 125 2 0.37320 -2.652 5.296 -1.496 #H2E
623 125 2 0.37320 -1.995 5.514 -1.762 #H2E
624 125 3 0.00000 -2.645 5.298 -1.499 #H2N
625 125 3 0.00000 -2.002 5.511 -1.759 #H2N
626 126 1 -0.74640 7.158 6.452 7.888 #H2G
627 126 2 0.37320 6.911 6.263 8.091 #H2E
628 126 2 0.37320 7.404 6.641 7.684 #H2E
629 126 3 0.00000 6.917 6.266 8.087 #H2N
630 126 3 0.00000 7.399 6.638 7.689 #H2N
631 127 1 -0.74640 8.994 -5.837 -9.594 #H2G
632 127 2 0.37320 9.159 -5.908 -9.919 #H2E
633 127 2 0.37320 8.830 -5.768 -9.268 #H2E
634 127 3 0.00000 9.155 -5.907 -9.912 #H2N
635 127 3 0.00000 8.834 -5.769 -9.275 #H2N
636 128 1 -0.74640 2.525 -8.160 4.324 #H2G
637 128 2 0.37320 2.664 -7.851 4.174 #H2E
638 128 2 0.37320 2.386 -8.470 4.475 #H2E
639 128 3 0.00000 2.660 -7.858 4.177 #H2N
640 128 3 0.00000 2.390 -8.463 4.472 #H2N
641 129 1 -0.74640 -2.325 9.299 -4.759 #H2G
642 129 2 0.37320 -2.362 9.583 -4.523 #H2E
643 129 2 0.37320 -2.288 9.014 -4.995 #H2E
644 129 3 0.00000 -2.361 9.576 -4.529 #H2N
645 129 3 0.00000 -2.289 9.020 -4.989 #H2N
646 130 1 -0.74640 3.626 -6.217 -4.582 #H2G
647 130 2 0.37320 3.549 -6.134 -4.229 #H2E
648 130 2 0.37320 3.702 -6.299 -4.935 #H2E
649 130 3 0.00000 3.551 -6.135 -4.236 #H2N
650 130 3 0.00000 3.700 -6.298 -4.928 #H2N
651 131 1 -0.74640 0.950 -3.263 10.395 #H2G
652 131 2 0.37320 1.032 -3.135 10.058 #H2E
653 131 2 0.37320 0.868 -3.390 10.734 #H2E
654 131 3 0.00000 1.031 -3.138 10.064 #H2N
655 131 3 0.00000 0.870 -3.388 10.726 #H2N
656 132 1 -0.74640 -9.940 -0.691 -3.783 #H2G
657 132 2 0.37320 -10.288 -0.571 -3.741 #H2E
658 132 2 0.37320 -9.591 -0.811 -3.823 #H2E
659 132 3 0.00000 -10.281 -0.574 -3.742 #H2N
660 132 3 0.00000 -9.599 -0.808 -3.822 #H2N
661 133 1 -0.74640 2.759 -6.246 -1.087 #H2G
662 133 2 0.37320 2.999 -6.350 -1.351 #H2E
663 133 2 0.37320 2.519 -6.143 -0.825 #H2E
664 133 3 0.00000 2.993 -6.348 -1.345 #H2N
665 133 3 0.00000 2.524 -6.145 -0.830 #H2N
666 134 1 -0.74640 10.713 -5.572 0.189 #H2G
667 134 2 0.37320 11.048 -5.478 0.318 #H2E
668 134 2 0.37320 10.378 -5.666 0.061 #H2E
669 134 3 0.00000 11.040 -5.480 0.315 #H2N
670 134 3 0.00000 10.385 -5.664 0.064 #H2N
671 135 1 -0.74640 5.322 -6.361 6.023 #H2G
672 135 2 0.37320 5.303 -6.177 5.702 #H2E
673 135 2 0.37320 5.343 -6.548 6.344 #H2E
674 135 3 0.00000 5.304 -6.181 5.709 #H2N
675 135 3 0.00000 5.343 -6.543 6.337 #H2N
676 136 1 -0.74640 3.243 -9.514 -4.991 #H2G
677 136 2 0.37320 3.198 -9.166 -4.868 #H2E
678 136 2 0.37320 3.290 -9.861 -5.113 #H2E
679 136 3 0.00000 3.199 -9.174 -4.871 #H2N
680 136 3 0.00000 3.289 -9.854 -5.110 #H2N
681 137 1 -0.74640 -10.426 -2.100 0.141 #H2G
682 137 2 0.37320 -10.404 -2.359 -0.124 #H2E
683 137 2 0.37320 -10.448 -1.841 0.405 #H2E
684 137 3 0.00000 -10.404 -2.353 -0.118 #H2N
685 137 3 0.00000 -10.449 -1.846 0.399 #H2N
686 138 1 -0.74640 5.527 -10.124 5.378 #H2G
687 138 2 0.37320 5.272 -10.387 5.432 #H2E
688 138 2 0.37320 5.782 -9.860 5.323 #H2E
689 138 3 0.00000 5.279 -10.381 5.432 #H2N
690 138 3 0.00000 5.776 -9.865 5.324 #H2N
691 139 1 -0.74640 7.051 3.862 -5.098 #H2G
692 139 2 0.37320 6.760 3.827 -4.872 #H2E
693 139 2 0.37320 7.342 3.897 -5.326 #H2E
694 139 3 0.00000 6.766 3.828 -4.876 #H2N
695 139 3 0.00000 7.336 3.897 -5.321 #H2N
696 140 1 -0.74640 -4.823 7.349 -6.020 #H2G
697 140 2 0.37320 -4.577 7.112 -6.165 #H2E
698 140 2 0.37320 -5.070 7.586 -5.877 #H2E
699 140 3 0.00000 -4.582 7.117 -6.161 #H2N
700 140 3 0.00000 -5.064 7.580 -5.879 #H2N
701 141 1 -0.74640 2.778 10.711 -8.348 #H2G
702 141 2 0.37320 2.726 10.537 -8.671 #H2E
703 141 2 0.37320 2.830 10.885 -8.025 #H2E
704 141 3 0.00000 2.727 10.541 -8.664 #H2N
705 141 3 0.00000 2.828 10.882 -8.031 #H2N
706 142 1 -0.74640 7.129 3.224 -10.748 #H2G
707 142 2 0.37320 7.219 3.405 -10.436 #H2E
708 142 2 0.37320 7.040 3.043 -11.058 #H2E
709 142 3 0.00000 7.217 3.401 -10.443 #H2N
710 142 3 0.00000 7.041 3.046 -11.052 #H2N
711 143 1 -0.74640 -6.685 -3.110 -9.827 #H2G