ITEM: TIMESTEP
0
ITEM: NUMBER OF ATOMS
750
ITEM: BOX BOUNDS pp pp pp
-1.0797442000000000e+01 1.0797442000000000e+01
-1.0797442000000000e+01 1.0797442000000000e+01
-1.0797442000000000e+01 1.0797442000000000e+01
ITEM: ATOMS x y z type mol 
-7.296 -8.489 -4.925 1 22 
-7.203 -8.782 -4.716 2 22 
-7.386 -8.198 -5.135 2 22 
-7.206 -8.774 -4.72 3 22 
-7.385 -8.203 -5.131 3 22 
-4.558 -5.54 -7.891 1 46 
-4.41 -5.325 -7.627 2 46 
-4.705 -5.754 -8.153 2 46 
-4.413 -5.329 -7.632 3 46 
-4.703 -5.75 -8.149 3 46 
-6.143 -7.856 -9.748 1 76 
-6.416 -8.057 -9.597 2 76 
-5.869 -7.654 -9.899 2 76 
-6.41 -8.052 -9.601 3 76 
-5.876 -7.659 -9.896 3 76 
-6.691 -5.194 -5.064 1 97 
-6.597 -4.839 -5.014 2 97 
-6.782 -5.55 -5.112 2 97 
-6.599 -4.845 -5.016 3 97 
-6.78 -5.542 -5.111 3 97 
-4.394 -8.878 -6.525 1 111 
-4.574 -9.035 -6.242 2 111 
-4.215 -8.72 -6.81 2 111 
-4.57 -9.032 -6.248 3 111 
-4.22 -8.724 -6.803 3 111 
-9.628 -10.255 -4.915 1 116 
-9.813 -10.24 -4.595 2 116 
-9.443 -10.271 -5.237 2 116 
-9.809 -10.24 -4.601 3 116 
-9.447 -10.271 -5.23 3 116 
-9.335 -6.078 -6.172 1 119 
-9.157 -6.162 -6.487 2 119 
-9.514 -5.996 -5.859 2 119 
-9.161 -6.159 -6.481 3 119 
-9.511 -5.998 -5.865 3 119 
-2.897 -3.625 -5.876 2 6 
-2.897 -3.618 -5.881 3 6 
0.498 -6.941 -7.716 1 59 
0.782 -6.846 -7.497 2 59 
0.215 -7.037 -7.937 2 59 
0.775 -6.849 -7.501 3 59 
0.221 -7.035 -7.931 3 59 
3.549 -6.134 -4.229 2 130 
3.551 -6.135 -4.236 3 130 
3.243 -9.514 -4.991 1 136 
3.198 -9.166 -4.868 2 136 
3.29 -9.861 -5.113 2 136 
3.199 -9.174 -4.871 3 136 
3.289 -9.854 -5.11 3 136 
2.83 -10.7099 -8.025 2 141 
2.828 -10.7129 -8.031 3 141 
7.977 -6.337 -6.504 1 40 
8.022 -6.606 -6.251 2 40 
7.932 -6.069 -6.755 2 40 
8.021 -6.599 -6.257 3 40 
7.933 -6.074 -6.75 3 40 
9.904 -4.905 -3.719 1 44 
9.858 -4.573 -3.878 2 44 
9.859 -4.58 -3.875 3 44 
4.658 -4.629 -7.398 1 48 
4.402 -4.83 -7.221 2 48 
4.914 -4.427 -7.575 2 48 
4.407 -4.826 -7.225 3 48 
4.909 -4.432 -7.571 3 48 
10.401 -9.332 -10.257 1 105 
10.125 -9.521 -10.417 2 105 
10.678 -9.142 -10.097 2 105 
10.131 -9.517 -10.413 3 105 
10.67 -9.146 -10.101 3 105 
6.371 -8.447 -10.6269 2 120 
6.378 -8.448 -10.6319 3 120 
8.994 -5.837 -9.594 1 127 
9.159 -5.908 -9.919 2 127 
8.83 -5.768 -9.268 2 127 
9.155 -5.907 -9.912 3 127 
8.834 -5.769 -9.275 3 127 
3.626 -6.217 -4.582 1 130 
3.702 -6.299 -4.935 2 130 
3.7 -6.298 -4.928 3 130 
-8.243 2.408 -4.934 1 72 
-8.394 2.07 -4.965 2 72 
-8.093 2.746 -4.905 2 72 
-8.391 2.077 -4.963 3 72 
-8.096 2.739 -4.905 3 72 
-9.94 -0.691 -3.783 1 132 
-10.288 -0.571 -3.741 2 132 
-9.591 -0.811 -3.823 2 132 
-10.281 -0.574 -3.742 3 132 
-9.599 -0.808 -3.822 3 132 
-6.685 -3.11 -9.827 1 143 
-6.43 -3.127 -10.095 2 143 
-6.941 -3.093 -9.559 2 143 
-6.436 -3.126 -10.09 3 143 
-6.935 -3.094 -9.564 3 143 
-2.95 -3.335 -6.101 1 6 
-3.004 -3.044 -6.325 2 6 
-3.003 -3.05 -6.321 3 6 
-1.81 3.402 -8.387 1 54 
-2.117 3.588 -8.482 2 54 
-1.504 3.216 -8.289 2 54 
-2.11 3.583 -8.481 3 54 
-1.511 3.22 -8.292 3 54 
2.299 -2.801 -5.412 1 93 
2.415 -3.15 -5.453 2 93 
2.183 -2.45 -5.371 2 93 
2.413 -3.143 -5.452 3 93 
2.185 -2.457 -5.372 3 93 
0.478 1.316 -10.639 1 102 
0.707 1.546 -10.46 2 102 
0.701 1.541 -10.463 3 102 
-0.438 -1.951 -4.577 1 149 
-0.331 -1.653 -4.385 2 149 
-0.546 -2.25 -4.768 2 149 
-0.333 -1.659 -4.389 3 149 
-0.544 -2.244 -4.765 3 149 
-1.05 3.112 -4.662 1 150 
-0.843 2.865 -4.846 2 150 
-1.255 3.36 -4.478 2 150 
-0.847 2.87 -4.842 3 150 
-1.252 3.355 -4.483 3 150 
4.996 -3.275 -10.193 1 36 
5.224 -2.991 -10.265 2 36 
4.768 -3.559 -10.121 2 36 
5.219 -2.997 -10.263 3 36 
4.773 -3.553 -10.123 3 36 
5.683 -1.198 -6.022 1 56 
5.982 -1.007 -5.915 2 56 
5.383 -1.389 -6.129 2 56 
5.976 -1.012 -5.918 3 56 
5.39 -1.386 -6.126 3 56 
4.064 3.139 -5.349 1 73 
4.031 2.99 -5.011 2 73 
4.097 3.288 -5.688 2 73 
4.03 2.993 -5.018 3 73 
4.096 3.285 -5.68 3 73 
9.537 -2.136 -6.367 1 90 
9.235 -2.171 -6.58 2 90 
9.838 -2.103 -6.154 2 90 
9.241 -2.17 -6.575 3 90 
9.833 -2.103 -6.159 3 90 
10.397 1.072 -6.299 1 110 
10.492 1.001 -5.948 2 110 
10.304 1.141 -6.651 2 110 
10.49 1.003 -5.955 3 110 
10.305 1.14 -6.644 3 110 
7.103 1.043 -7.936 1 112 
7.369 1.198 -8.143 2 112 
6.837 0.887 -7.73 2 112 
7.363 1.196 -8.139 3 112 
6.843 0.892 -7.734 3 112 
10.456 -1.135 -9.723 1 123 
10.669 -1.339 -9.498 2 123 
10.244 -0.932 -9.949 2 123 
10.665 -1.333 -9.502 3 123 
10.249 -0.935 -9.945 3 123 
4.31 0.394 -9.386 1 124 
3.954 0.503 -9.389 2 124 
4.663 0.286 -9.382 2 124 
3.962 0.5 -9.389 3 124 
4.656 0.289 -9.383 3 124 
7.129 3.224 -10.748 1 142 
7.219 3.405 -10.436 2 142 
7.217 3.401 -10.443 3 142 
-4.3 6.463 -9.11 1 25 
-4.521 6.45 -8.812 2 25 
-4.077 6.476 -9.407 2 25 
-4.516 6.45 -8.82 3 25 
-4.083 6.476 -9.401 3 25 
-7.67 5.991 -8.245 1 47 
-7.49 5.752 -8.465 2 47 
-7.847 6.231 -8.026 2 47 
-7.493 5.757 -8.46 3 47 
-7.843 6.225 -8.03 3 47 
-9.693 4.535 -10.718 1 64 
-9.363 4.368 -10.756 2 64 
-10.022 4.701 -10.682 2 64 
-9.37 4.372 -10.755 3 64 
-10.015 4.698 -10.682 3 64 
-6.144 9.525 -8.405 1 94 
-6.151 9.162 -8.482 2 94 
-6.138 9.887 -8.325 2 94 
-6.15 9.17 -8.48 3 94 
-6.138 9.879 -8.327 3 94 
-5.52 4.449 -6.739 1 107 
-5.748 4.355 -7.015 2 107 
-5.289 4.544 -6.464 2 107 
-5.744 4.358 -7.009 3 107 
-5.295 4.541 -6.47 3 107 
-4.823 7.349 -6.02 1 140 
-4.577 7.112 -6.165 2 140 
-5.07 7.586 -5.877 2 140 
-4.582 7.117 -6.161 3 140 
-5.064 7.58 -5.879 3 140 
-10.098 3.91 -6.918 1 145 
-10.122 3.62 -7.147 2 145 
-10.074 4.202 -6.69 2 145 
-10.121 3.626 -7.142 3 145 
-10.076 4.196 -6.695 3 145 
1.132 8.441 -6.309 1 39 
0.986 8.265 -6.017 2 39 
1.277 8.617 -6.601 2 39 
0.989 8.269 -6.023 3 39 
1.273 8.614 -6.595 3 39 
-2.947 10.461 -8.816 1 42 
-2.715 10.292 -9.051 2 42 
-3.177 10.629 -8.58 2 42 
-2.72 10.296 -9.046 3 42 
-3.173 10.626 -8.585 3 42 
-0.47 5.557 -6.185 1 77 
-0.477 5.242 -5.99 2 77 
-0.464 5.873 -6.381 2 77 
-0.476 5.248 -5.995 3 77 
-0.463 5.866 -6.376 3 77 
2.127 7.47 -10.165 1 79 
2.034 7.156 -9.992 2 79 
2.221 7.784 -10.339 2 79 
2.036 7.162 -9.996 3 79 
2.219 7.777 -10.336 3 79 
-1.251 7.508 -9.948 1 86 
-1.53 7.749 -9.91 2 86 
-0.972 7.265 -9.986 2 86 
-1.524 7.744 -9.911 3 86 
-0.978 7.271 -9.987 3 86 
-2.325 9.299 -4.759 1 129 
-2.362 9.583 -4.523 2 129 
-2.288 9.014 -4.995 2 129 
-2.361 9.576 -4.529 3 129 
-2.289 9.02 -4.989 3 129 
2.778 10.711 -8.348 1 141 
2.726 10.537 -8.671 2 141 
2.727 10.541 -8.664 3 141 
10.176 7.036 -4.053 1 30 
9.872 6.917 -4.231 2 30 
10.48 7.154 -3.878 2 30 
9.879 6.92 -4.226 3 30 
10.474 7.152 -3.88 3 30 
7.229 8.171 -6.373 1 62 
7.504 8.314 -6.166 2 62 
6.955 8.029 -6.579 2 62 
7.497 8.311 -6.171 3 62 
6.961 8.033 -6.573 3 62 
3.999 6.563 -5.723 1 80 
3.676 6.635 -5.89 2 80 
4.323 6.493 -5.556 2 80 
3.683 6.633 -5.887 3 80 
4.315 6.495 -5.559 3 80 
9.474 10.729 -7.254 1 99 
9.644 10.676 -7.579 2 99 
9.304 10.784 -6.929 2 99 
9.64 10.677 -7.573 3 99 
9.307 10.783 -6.937 3 99 
9.868 6.468 -7.682 1 109 
9.693 6.659 -7.418 2 109 
10.041 6.275 -7.948 2 109 
9.697 6.656 -7.423 3 109 
10.037 6.28 -7.942 3 109 
7.051 3.862 -5.098 1 139 
6.76 3.827 -4.872 2 139 
7.342 3.897 -5.326 2 139 
6.766 3.828 -4.876 3 139 
7.336 3.897 -5.321 3 139 
-5.708 -10.224 1.566 1 7 
-5.492 -10.505 1.454 2 7 
-5.923 -9.943 1.675 2 7 
-5.497 -10.499 1.457 3 7 
-5.918 -9.948 1.673 3 7 
-9.683 -10.599 3.013 1 28 
-9.966 -10.367 2.954 2 28 
-9.961 -10.372 2.955 3 28 
-9.536 -6.858 2.529 1 60 
-9.36 -6.971 2.223 2 60 
-9.712 -6.744 2.835 2 60 
-9.363 -6.969 2.231 3 60 
-9.708 -6.747 2.829 3 60 
-7.821 -6.079 -1.727 1 92 
-7.795 -6.096 -1.359 2 92 
-7.846 -6.063 -2.097 2 92 
-7.795 -6.095 -1.366 3 92 
-7.846 -6.064 -2.089 3 92 
-4.654 -5.299 0.526 1 104 
-4.659 -5.31 0.156 2 104 
-4.649 -5.288 0.897 2 104 
-4.658 -5.31 0.164 3 104 
-4.649 -5.289 0.888 3 104 
-9.036 -10.7469 -1.456 2 106 
-9.036 -10.7509 -1.464 3 106 
-10.5469 -5.478 0.318 2 134 
-10.5549 -5.48 0.315 3 134 
0.777 -7.147 -3.214 1 31 
0.748 -6.911 -2.929 2 31 
0.807 -7.382 -3.498 2 31 
0.748 -6.917 -2.936 3 31 
0.807 -7.378 -3.493 3 31 
-1.466 -7.086 2.442 1 34 
-1.769 -7.054 2.654 2 34 
-1.163 -7.116 2.23 2 34 
-1.762 -7.054 2.65 3 34 
-1.169 -7.116 2.235 3 34 
0.589 -10.5859 0.207 2 68 
0.589 -10.5919 0.201 3 68 
-2.834 -6.397 -2.335 1 103 
-2.714 -6.101 -2.147 2 103 
-2.954 -6.693 -2.524 2 103 
-2.716 -6.106 -2.152 3 103 
-2.951 -6.687 -2.518 3 103 
-0.298 -3.652 2.412 2 114 
-0.294 -3.648 2.407 3 114 
2.759 -6.246 -1.087 1 133 
2.999 -6.35 -1.351 2 133 
2.519 -6.143 -0.825 2 133 
2.993 -6.348 -1.345 3 133 
2.524 -6.145 -0.83 3 133 
7.706 -5.132 3.554 1 32 
7.578 -4.87 3.323 2 32 
7.58 -4.876 3.328 3 32 
9.95 -5.237 -3.561 2 44 
9.95 -5.23 -3.564 3 44 
8.992 -8.677 0.286 1 50 
9.265 -8.882 0.431 2 50 
8.719 -8.471 0.141 2 50 
9.259 -8.878 0.427 3 50 
8.726 -8.475 0.144 3 50 
7.849 -7.436 -3.283 1 53 
7.671 -7.642 -3.032 2 53 
8.029 -7.227 -3.533 2 53 
7.675 -7.638 -3.038 3 53 
8.025 -7.233 -3.529 3 53 
8.205 -10.289 3.302 1 85 
8.228 -10.056 3.015 2 85 
8.183 -10.523 3.589 2 85 
8.227 -10.061 3.021 3 85 
8.183 -10.519 3.583 3 85 
10.713 -5.572 0.189 1 134 
10.378 -5.666 0.061 2 134 
10.385 -5.664 0.064 3 134 
-6.958 -0.344 3.323 2 11 
-6.959 -0.345 3.33 3 11 
-6.837 1.971 0.044 1 35 
-6.755 1.871 -0.304 2 35 
-6.921 2.071 0.392 2 35 
-6.756 1.873 -0.295 3 35 
-6.918 2.069 0.385 3 35 
-10.534 -3.484 3.059 1 41 
-10.389 -3.425 3.395 2 41 
-10.677 -3.542 2.722 2 41 
-10.392 -3.426 3.388 3 41 
-10.675 -3.541 2.73 3 41 
-5.412 -0.602 -3.145 1 89 
-5.393 -0.894 -2.917 2 89 
-5.432 -0.31 -3.373 2 89 
-5.393 -0.888 -2.922 3 89 
-5.432 -0.316 -3.368 3 89 
-5.984 -1.654 0.37 1 113 
-5.937 -1.408 0.097 2 113 
-6.032 -1.901 0.644 2 113 
-5.937 -1.414 0.102 3 113 
-6.03 -1.895 0.638 3 113 
-10.426 -2.1 0.141 1 137 
-10.404 -2.359 -0.124 2 137 
-10.448 -1.841 0.405 2 137 
-10.404 -2.353 -0.118 3 137 
-10.449 -1.846 0.399 3 137 
0.982 -2.923 -0.993 1 15 
0.746 -2.666 -0.863 2 15 
1.215 -3.18 -1.121 2 15 
0.751 -2.673 -0.866 3 15 
1.212 -3.175 -1.118 3 15 
0.048 3.154 -0.952 1 17 
0.301 3.424 -0.985 2 17 
-0.204 2.884 -0.919 2 17 
0.295 3.417 -0.984 3 17 
-0.2 2.89 -0.921 3 17 
2.934 -0.407 -2.39 1 66 
2.907 -0.221 -2.07 2 66 
2.964 -0.593 -2.71 2 66 
2.906 -0.225 -2.077 3 66 
2.963 -0.589 -2.703 3 66 
-0.121 -3.495 2.126 1 114 
0.056 -3.34 1.839 2 114 
0.051 -3.343 1.846 3 114 
-2.284 1.221 -0.422 1 122 
-1.99 0.994 -0.406 2 122 
-2.577 1.447 -0.438 2 122 
-1.996 0.999 -0.405 3 122 
-2.57 1.443 -0.438 3 122 
1.384 0.972 0.67 1 147 
1.566 0.847 0.372 2 147 
1.204 1.098 0.968 2 147 
1.562 0.85 0.378 3 147 
1.207 1.095 0.961 3 147 
8.191 0.099 0.952 1 26 
7.889 0.139 0.741 2 26 
8.494 0.058 1.163 2 26 
7.896 0.138 0.746 3 26 
8.487 0.06 1.158 3 26 
5.619 1.461 -2.114 1 33 
5.491 1.809 -2.099 2 33 
5.746 1.113 -2.128 2 33 
5.493 1.801 -2.1 3 33 
5.744 1.12 -2.128 3 33 
8.345 2.113 3.478 2 67 
8.346 2.108 3.483 3 67 
4.28 -2.352 2.498 1 75 
4.644 -2.284 2.49 2 75 
3.915 -2.421 2.508 2 75 
4.637 -2.285 2.49 3 75 
3.922 -2.419 2.507 3 75 
4.28 0.691 2.261 1 101 
3.933 0.601 2.352 2 101 
4.629 0.782 2.171 2 101 
3.941 0.603 2.35 3 101 
4.622 0.779 2.173 3 101 
6.044 -3.068 -0.785 1 118 
6.246 -3.233 -1.049 2 118 
5.84 -2.904 -0.522 2 118 
6.243 -3.229 -1.044 3 118 
5.846 -2.907 -0.528 3 118 
-4.777 5.098 3.139 1 18 
-4.962 5.245 3.424 2 18 
-4.591 4.952 2.853 2 18 
-4.957 5.242 3.418 3 18 
-4.595 4.955 2.859 3 18 
-9.4 10.7639 3.071 2 28 
-9.407 10.7689 3.07 3 28 
-9.744 4.732 2.053 1 52 
-9.399 4.732 2.19 2 52 
-10.088 4.731 1.915 2 52 
-9.406 4.732 2.187 3 52 
-10.081 4.732 1.918 3 52 
-5.106 8.193 2.179 1 74 
-5.27 8.516 2.258 2 74 
-4.942 7.87 2.1 2 74 
-5.266 8.509 2.257 3 74 
-4.945 7.876 2.101 3 74 
-9.098 6.966 -0.849 1 87 
-8.981 6.622 -0.777 2 87 
-9.215 7.312 -0.918 2 87 
-8.984 6.629 -0.779 3 87 
-9.212 7.305 -0.917 3 87 
-9.399 7.784 2.122 1 91 
-9.06 7.905 2.037 2 91 
-9.739 7.662 2.206 2 91 
-9.066 7.902 2.038 3 91 
-9.733 7.665 2.205 3 91 
-9.03 10.661 -1.777 1 106 
-9.025 10.474 -2.096 2 106 
-9.025 10.478 -2.09 3 106 
2.241 6.834 -0.211 1 1 
1.924 6.68 -0.329 2 1 
2.558 6.987 -0.093 2 1 
1.931 6.684 -0.326 3 1 
2.55 6.983 -0.095 3 1 
-0.952 5.952 1.548 1 24 
-0.811 5.61 1.587 2 24 
-1.093 6.292 1.508 2 24 
-0.816 5.618 1.586 3 24 
-1.09 6.285 1.509 3 24 
0.617 10.752 -0.06 1 68 
0.647 10.496 -0.327 2 68 
0.645 10.501 -0.322 3 68 
-2.599 9.503 0.674 1 88 
-2.69 9.166 0.549 2 88 
-2.509 9.841 0.798 2 88 
-2.687 9.172 0.552 3 88 
-2.512 9.834 0.796 3 88 
-2.323 5.405 -1.63 1 125 
-2.652 5.296 -1.496 2 125 
-1.995 5.514 -1.762 2 125 
-2.645 5.298 -1.499 3 125 
-2.002 5.511 -1.759 3 125 
9.14 7.241 -0.819 1 27 
8.947 6.971 -0.652 2 27 
9.334 7.509 -0.985 2 27 
8.951 6.978 -0.656 3 27 
9.33 7.503 -0.982 3 27 
3.774 4.438 1.926 1 29 
3.933 4.141 2.083 2 29 
3.615 4.733 1.768 2 29 
3.93 4.147 2.079 3 29 
3.618 4.727 1.771 3 29 
7.67 10.45 -2.705 1 38 
7.953 10.577 -2.501 2 38 
7.386 10.324 -2.908 2 38 
7.946 10.575 -2.506 3 38 
7.392 10.326 -2.904 3 38 
8.846 3.928 -1.355 1 58 
8.743 3.731 -1.652 2 58 
8.947 4.127 -1.058 2 58 
8.746 3.734 -1.644 3 58 
8.945 4.122 -1.064 3 58 
5.607 5.89 -2.679 1 70 
5.333 6.128 -2.601 2 70 
5.882 5.652 -2.756 2 70 
5.338 6.122 -2.603 3 70 
5.875 5.657 -2.755 3 70 
9.043 8.338 1.961 1 78 
9.071 7.968 1.98 2 78 
9.017 8.708 1.942 2 78 
9.069 7.976 1.98 3 78 
9.018 8.7 1.942 3 78 
5.33 8.11 2.616 1 98 
5.266 8.063 2.254 2 98 
5.395 8.156 2.979 2 98 
5.267 8.064 2.261 3 98 
5.394 8.155 2.97 3 98 
-5.851 -4.459 4.601 1 65 
-5.959 -4.801 4.509 2 65 
-5.743 -4.116 4.695 2 65 
-5.956 -4.794 4.51 3 65 
-5.745 -4.123 4.693 3 65 
-6.213 -6.202 8.241 1 71 
-6.353 -6.439 8.49 2 71 
-6.073 -5.964 7.993 2 71 
-6.349 -6.435 8.485 3 71 
-6.076 -5.969 7.999 3 71 
-3.09 -5.833 8.298 1 12 
-3.219 -5.804 7.951 2 12 
-2.961 -5.862 8.644 2 12 
-3.217 -5.804 7.959 3 12 
-2.963 -5.862 8.636 3 12 
0.515 -9.487 7.109 1 13 
0.259 -9.701 6.947 2 13 
0.771 -9.272 7.271 2 13 
0.265 -9.695 6.951 3 13 
0.766 -9.276 7.266 3 13 
2.038 -5.772 8.533 1 57 
2.348 -5.757 8.33 2 57 
1.727 -5.786 8.736 2 57 
2.341 -5.757 8.334 3 57 
1.733 -5.786 8.731 3 57 
3.537 -8.427 9.327 1 84 
3.334 -8.598 9.587 2 84 
3.338 -8.594 9.581 3 84 
1.318 -3.653 5.271 2 96 
1.315 -3.646 5.272 3 96 
-0.713 -6.001 5.97 1 117 
-0.374 -6.093 5.848 2 117 
-1.05 -5.909 6.091 2 117 
-0.382 -6.092 5.851 3 117 
-1.043 -5.911 6.089 3 117 
2.525 -8.16 4.324 1 128 
2.664 -7.851 4.174 2 128 
2.386 -8.47 4.475 2 128 
2.66 -7.858 4.177 3 128 
2.39 -8.463 4.472 3 128 
8.387 -9.263 7.524 1 3 
8.209 -9.281 7.85 2 3 
8.563 -9.244 7.198 2 3 
8.214 -9.281 7.843 3 3 
8.559 -9.244 7.205 3 3 
7.834 -5.392 3.784 2 32 
7.832 -5.386 3.779 3 32 
9.782 -6.838 5.052 1 51 
9.92 -7.18 5.02 2 51 
9.643 -6.496 5.085 2 51 
9.918 -7.174 5.02 3 51 
9.646 -6.503 5.085 3 51 
3.739 -8.256 9.068 2 84 
3.735 -8.26 9.074 3 84 
6.669 -8.509 10.753 1 120 
6.965 -8.571 10.54 2 120 
6.959 -8.57 10.545 3 120 
5.322 -6.361 6.023 1 135 
5.303 -6.177 5.702 2 135 
5.343 -6.548 6.344 2 135 
5.304 -6.181 5.709 3 135 
5.343 -6.543 6.337 3 135 
5.527 -10.124 5.378 1 138 
5.272 -10.387 5.432 2 138 
5.782 -9.86 5.323 2 138 
5.279 -10.381 5.432 3 138 
5.776 -9.865 5.324 3 138 
-9.235 -2.178 9.847 1 5 
-8.991 -1.997 10.062 2 5 
-9.478 -2.359 9.635 2 5 
-8.996 -2 10.056 3 5 
-9.474 -2.355 9.64 3 5 
-4.06 1.418 4.312 1 9 
-4.014 1.314 3.959 2 9 
-4.107 1.524 4.664 2 9 
-4.014 1.316 3.967 3 9 
-4.106 1.521 4.657 3 9 
-7.031 -0.359 3.685 1 11 
-7.104 -0.376 4.049 2 11 
-7.103 -0.375 4.04 3 11 
-8.178 1.392 10.555 1 61 
-7.874 1.448 10.349 2 61 
-8.482 1.337 10.759 2 61 
-7.88 1.447 10.353 3 61 
-8.475 1.339 10.755 3 61 
-5.309 -0.563 10.314 1 82 
-5.374 -0.905 10.186 2 82 
-5.242 -0.221 10.443 2 82 
-5.373 -0.897 10.188 3 82 
-5.244 -0.228 10.44 3 82 
-5.319 -1.986 6.771 1 108 
-5.076 -1.735 6.894 2 108 
-5.563 -2.236 6.646 2 108 
-5.081 -1.741 6.892 3 108 
-5.557 -2.231 6.649 3 108 
-9.118 3.584 7.831 2 121 
-9.11 3.585 7.828 3 121 
-1.36 2.399 8.079 1 4 
-1.699 2.412 8.228 2 4 
-1.02 2.385 7.93 2 4 
-1.692 2.412 8.224 3 4 
-1.026 2.385 7.933 3 4 
-0.129 2.863 4.113 1 10 
-0.226 3.221 4.13 2 10 
-0.032 2.505 4.098 2 10 
-0.223 3.213 4.129 3 10 
-0.035 2.512 4.097 3 10 
1.759 -0.042 7.168 1 16 
1.61 -0.094 6.832 2 16 
1.907 0.01 7.504 2 16 
1.614 -0.093 6.839 3 16 
1.903 0.009 7.496 3 16 
3.292 2.397 5.178 1 49 
3.542 2.468 4.912 2 49 
3.041 2.326 5.442 2 49 
3.536 2.467 4.919 3 49 
3.047 2.327 5.437 3 49 
3.567 3.332 10.059 2 63 
3.572 3.339 10.058 3 63 
1.174 -3.312 5.265 1 96 
1.03 -2.97 5.257 2 96 
1.033 -2.978 5.257 3 96 
0.25 1.085 10.7759 2 102 
0.255 1.09 10.7799 3 102 
0.95 -3.263 10.395 1 131 
1.032 -3.135 10.058 2 131 
0.868 -3.39 10.734 2 131 
1.031 -3.138 10.064 3 131 
0.87 -3.388 10.726 3 131 
-2.292 -2.472 8.855 1 146 
-2.581 -2.461 9.086 2 146 
-2.003 -2.482 8.622 2 146 
-2.574 -2.461 9.082 3 146 
-2.009 -2.481 8.627 3 146 
9.974 -2.044 7.817 1 23 
9.679 -2.269 7.828 2 23 
10.269 -1.819 7.806 2 23 
9.685 -2.263 7.827 3 23 
10.262 -1.824 7.806 3 23 
9.413 2.021 7.547 1 37 
9.392 1.782 7.264 2 37 
9.433 2.259 7.831 2 37 
9.393 1.788 7.27 3 37 
9.434 2.254 7.825 3 37 
8.374 1.873 3.759 1 67 
8.402 1.635 4.042 2 67 
8.402 1.64 4.036 3 67 
6.508 -2.763 8.071 1 83 
6.402 -2.489 8.297 2 83 
6.612 -3.039 7.845 2 83 
6.405 -2.495 8.292 3 83 
6.61 -3.033 7.85 3 83 
7.04 3.043 10.5369 2 142 
7.041 3.046 10.5429 3 142 
5.408 0.136 7.067 1 144 
5.116 -0.082 7.14 2 144 
5.699 0.353 6.994 2 144 
5.122 -0.077 7.138 3 144 
5.693 0.348 6.996 3 144 
-7.055 9.708 4.108 1 2 
-7.197 9.401 3.955 2 2 
-6.911 10.015 4.26 2 2 
-7.195 9.407 3.958 3 2 
-6.915 10.008 4.256 3 2 
-10.334 7.824 9.765 1 8 
-9.973 7.81 9.851 2 8 
-10.695 7.838 9.679 2 8 
-9.982 7.81 9.849 3 8 
-10.687 7.838 9.681 3 8 
-3.607 10.673 4.046 2 14 
-3.606 10.671 4.054 3 14 
-8.698 7.564 6.853 1 19 
-8.364 7.555 7.014 2 19 
-9.031 7.572 6.693 2 19 
-8.372 7.555 7.011 3 19 
-9.025 7.573 6.695 3 19 
-4.305 9.64 9.704 1 55 
-4.024 9.859 9.598 2 55 
-4.586 9.421 9.808 2 55 
-4.031 9.853 9.599 3 55 
-4.579 9.426 9.807 3 55 
-6.327 5.833 10.355 1 100 
-5.979 5.86 10.233 2 100 
-6.676 5.806 10.48 2 100 
-5.986 5.86 10.234 3 100 
-6.668 5.805 10.476 3 100 
-5.315 6.697 5.917 1 115 
-5.507 6.747 6.231 2 115 
-5.124 6.647 5.603 2 115 
-5.503 6.746 6.224 3 115 
-5.128 6.648 5.611 3 115 
-8.765 3.653 7.737 1 121 
-8.414 3.723 7.645 2 121 
-8.421 3.722 7.647 3 121 
-3.553 10.52 4.381 1 14 
-3.499 10.368 4.714 2 14 
-3.501 10.371 4.708 3 14 
0.84 5.276 8.104 1 21 
1.026 5.072 7.854 2 21 
0.656 5.479 8.353 2 21 
1.021 5.078 7.859 3 21 
0.66 5.474 8.347 3 21 
0.374 9.938 10.159 1 43 
0.041 9.781 10.12 2 43 
0.708 10.095 10.198 2 43 
0.048 9.784 10.121 3 43 
0.701 10.092 10.197 3 43 
-2.778 5.461 9.533 1 45 
-3.04 5.535 9.785 2 45 
-2.517 5.389 9.281 2 45 
-3.034 5.533 9.781 3 45 
-2.522 5.391 9.286 3 45 
1.475 10.453 3.884 1 81 
1.681 10.167 3.771 2 81 
1.27 10.741 3.998 2 81 
1.676 10.172 3.773 3 81 
1.274 10.735 3.995 3 81 
-2.069 7.756 7.61 1 95 
-1.935 7.924 7.308 2 95 
-2.202 7.587 7.912 2 95 
-1.937 7.92 7.313 3 95 
-2.199 7.591 7.906 3 95 
3.172 8.818 7.703 1 148 
3.426 8.583 7.836 2 148 
2.919 9.055 7.573 2 148 
3.421 8.587 7.832 3 148 
2.924 9.049 7.574 3 148 
9.535 8.222 6.876 1 20 
9.361 8.386 7.16 2 20 
9.709 8.058 6.594 2 20 
9.364 8.381 7.155 3 20 
9.705 8.061 6.599 3 20 
3.717 3.666 9.997 1 63 
3.865 4.001 9.934 2 63 
3.862 3.993 9.935 3 63 
3.991 5.461 7.545 1 69 
4.072 5.629 7.866 2 69 
3.911 5.295 7.222 2 69 
4.069 5.624 7.86 3 69 
3.914 5.299 7.23 3 69 
7.158 6.452 7.888 1 126 
6.911 6.263 8.091 2 126 
7.404 6.641 7.684 2 126 
6.917 6.266 8.087 3 126 
7.399 6.638 7.689 3 126 
ITEM: TIMESTEP
1
ITEM: NUMBER OF ATOMS
750
ITEM: BOX BOUNDS pp pp pp
-1.0797442000000000e+01 1.0797442000000000e+01
-1.0797442000000000e+01 1.0797442000000000e+01
-1.0797442000000000e+01 1.0797442000000000e+01
ITEM: ATOMS x y z type mol 
-7.30165 -8.50136 -4.91959 1 22 
-7.22101 -8.80472 -4.72047 2 22 
-7.37935 -8.20006 -5.11975 2 22 
-7.22369 -8.79648 -4.72421 3 22 
-7.37856 -8.20523 -5.11593 3 22 
-4.56934 -5.56304 -7.90758 1 46 
-4.42207 -5.34217 -7.64806 2 46 
-4.7156 -5.78287 -8.16513 2 46 
-4.42506 -5.34628 -7.65297 3 46 
-4.71362 -5.77878 -8.16121 3 46 
-6.14378 -7.84921 -9.72838 1 76 
-6.4095 -8.0447 -9.55836 2 76 
-5.87705 -7.65273 -9.89847 2 76 
-6.40369 -8.03985 -9.5628 3 76 
-5.8839 -7.65762 -9.89499 3 76 
-6.67531 -5.21008 -5.06669 1 97 
-6.5909 -4.85176 -5.02373 2 97 
-6.75669 -5.56928 -5.10763 2 97 
-6.59274 -4.85785 -5.02561 3 97 
-6.7549 -5.56121 -5.10679 3 97 
-4.39808 -8.87752 -6.53519 1 111 
-4.58373 -9.01879 -6.24759 2 111 
-4.2134 -8.73531 -6.82485 2 111 
-4.57962 -9.01613 -6.25367 3 111 
-4.21855 -8.7389 -6.81773 3 111 
-9.62474 -10.244 -4.92266 1 116 
-9.79585 -10.2433 -4.59468 2 116 
-9.4537 -10.2456 -5.25267 2 116 
-9.79211 -10.243 -4.60085 3 116 
-9.45739 -10.2459 -5.24551 3 116 
-9.32403 -6.07265 -6.1784 1 119 
-9.1432 -6.13514 -6.49677 2 119 
-9.50579 -6.01208 -5.86212 2 119 
-9.1473 -6.13257 -6.49064 3 119 
-9.50272 -6.01368 -5.86821 3 119 
-2.88305 -3.62303 -5.86797 2 6 
-2.88325 -3.61602 -5.87296 3 6 
0.492605 -6.92445 -7.69867 1 59 
0.775072 -6.82832 -7.47818 2 59 
0.211151 -7.02157 -7.92115 2 59 
0.768105 -6.83135 -7.48221 3 59 
0.217112 -7.01954 -7.91511 3 59 
3.56642 -6.1033 -4.24216 2 130 
3.56821 -6.1047 -4.24915 3 130 
3.26395 -9.49875 -4.9892 1 136 
3.2243 -9.15036 -4.86547 2 136 
3.30562 -9.84617 -5.11194 2 136 
3.22518 -9.15837 -4.86849 3 136 
3.30473 -9.83916 -5.10893 3 136 
2.84739 -10.7103 -7.98293 2 141 
2.84535 -10.7129 -7.98909 3 141 
7.97153 -6.32693 -6.49892 1 40 
8.01235 -6.59528 -6.24452 2 40 
7.93068 -6.05958 -6.75132 2 40 
8.01145 -6.58829 -6.25056 3 40 
7.9316 -6.06457 -6.74629 3 40 
9.92622 -4.91197 -3.71142 1 44 
9.87245 -4.57717 -3.86187 2 44 
9.87361 -4.58422 -3.85905 3 44 
4.67485 -4.62349 -7.40443 1 48 
4.42753 -4.83791 -7.23086 2 48 
4.92214 -4.40808 -7.57797 2 48 
4.43236 -4.83363 -7.23479 3 48 
4.91735 -4.41335 -7.57406 3 48 
10.4008 -9.32537 -10.2567 1 105 
10.1175 -9.50976 -10.4092 2 105 
10.6851 -9.14001 -10.1042 2 105 
10.1237 -9.50585 -10.4054 3 105 
10.6769 -9.14387 -10.108 3 105 
6.3634 -8.45553 -10.6251 2 120 
6.37028 -8.45655 -10.6302 3 120 
8.96906 -5.83232 -9.57206 1 127 
9.13917 -5.91377 -9.89194 2 127 
8.79992 -5.75286 -9.25111 2 127 
9.13505 -5.91254 -9.88505 3 127 
8.80403 -5.75409 -9.25801 3 127 
3.6321 -6.20615 -4.59221 1 130 
3.6968 -6.30799 -4.94228 2 130 
3.69502 -6.30659 -4.93529 3 130 
-8.22997 2.41275 -4.90954 1 72 
-8.36701 2.06862 -4.93779 2 72 
-8.09392 2.75682 -4.8833 2 72 
-8.3643 2.07575 -4.93584 3 72 
-8.09663 2.74971 -4.88324 3 72 
-9.9371 -0.6916 -3.77131 1 132 
-10.2844 -0.563657 -3.75361 2 132 
-9.58897 -0.819514 -3.78695 2 132 
-10.2774 -0.56682 -3.7541 3 132 
-9.59695 -0.816331 -3.78652 3 132 
-6.67887 -3.10325 -9.82086 1 143 
-6.41739 -3.10092 -10.0831 2 143 
-6.94134 -3.1056 -9.55866 2 143 
-6.42354 -3.10033 -10.0782 3 143 
-6.9352 -3.1062 -9.56355 3 143 
-2.94446 -3.33372 -6.09172 1 6 
-3.00688 -3.04343 -6.31445 2 6 
-3.00571 -3.04942 -6.31047 3 6 
-1.81914 3.36774 -8.39684 1 54 
-2.13542 3.53102 -8.50255 2 54 
-1.50391 3.20448 -8.28815 2 54 
-2.12814 3.52651 -8.50128 3 54 
-1.51109 3.20794 -8.29139 3 54 
2.30414 -2.79198 -5.40515 1 93 
2.41555 -3.14329 -5.43837 2 93 
2.19276 -2.43866 -5.37198 2 93 
2.41365 -3.13625 -5.43752 3 93 
2.19467 -2.44571 -5.37283 3 93 
0.486073 1.30516 -10.654 1 102 
0.712363 1.5286 -10.4636 2 102 
0.706402 1.52372 -10.4669 3 102 
-0.446174 -1.9431 -4.58044 1 149 
-0.344162 -1.62691 -4.41693 2 149 
-0.549145 -2.26022 -4.74285 2 149 
-0.346063 -1.63328 -4.42036 3 149 
-0.547257 -2.25393 -4.74042 3 149 
-1.04104 3.10772 -4.63888 1 150 
-0.827953 2.87008 -4.82818 2 150 
-1.25216 3.34641 -4.44955 2 150 
-0.832076 2.87489 -4.82407 3 150 
-1.24903 3.3416 -4.45466 3 150 
4.98896 -3.28995 -10.1858 1 36 
5.21671 -3.00645 -10.2605 2 36 
4.76121 -3.57345 -10.1111 2 36 
5.21172 -3.01244 -10.2585 3 36 
4.7662 -3.56746 -10.1131 3 36 
5.68778 -1.18836 -6.02824 1 56 
5.98478 -0.991495 -5.92642 2 56 
5.38978 -1.38525 -6.13005 2 56 
5.97883 -0.996623 -5.92931 3 56 
5.39677 -1.3821 -6.12716 3 56 
4.07202 3.12635 -5.34749 1 73 
4.03362 2.97538 -5.01094 2 73 
4.11043 3.27733 -5.68504 2 73 
4.03273 2.97843 -5.01794 3 73 
4.1093 3.27429 -5.67708 3 73 
9.54983 -2.12692 -6.37198 1 90 
9.24548 -2.16398 -6.58125 2 90 
9.85318 -2.09186 -6.16268 2 90 
9.25153 -2.16294 -6.57633 3 90 
9.84812 -2.0919 -6.16762 3 90 
10.3897 1.08356 -6.28844 1 110 
10.4796 0.989104 -5.94166 2 110 
10.3017 1.17604 -6.63631 2 110 
10.4778 0.991573 -5.94854 3 110 
10.3026 1.17459 -6.62938 3 110 
7.11595 1.04218 -7.90979 1 112 
7.37782 1.19864 -8.12092 2 112 
6.85409 0.884715 -7.69965 2 112 
7.37189 1.1966 -8.11683 3 112 
6.85999 0.88975 -7.70374 3 112 
10.4574 -1.13933 -9.71435 1 123 
10.6841 -1.31481 -9.47894 2 123 
10.2317 -0.964855 -9.9507 2 123 
10.6797 -1.30934 -9.48327 3 123 
10.2369 -0.967272 -9.94657 3 123 
4.28541 0.389366 -9.39142 1 124 
3.92546 0.484446 -9.38655 2 124 
4.64234 0.295163 -9.39521 2 124 
3.93357 0.48176 -9.38673 3 124 
4.63521 0.297893 -9.39605 3 124 
7.11246 3.2275 -10.7433 1 142 
7.20365 3.41939 -10.4382 2 142 
7.20162 3.41514 -10.445 3 142 
-4.28941 6.46171 -9.12033 1 25 
-4.51751 6.46872 -8.82753 2 25 
-4.05933 6.45468 -9.41209 2 25 
-4.51233 6.46821 -8.83539 3 25 
-4.06546 6.45513 -9.40624 3 25 
-7.6711 5.99687 -8.24686 1 47 
-7.48009 5.76291 -8.46297 2 47 
-7.85911 6.2319 -8.03169 2 47 
-7.48333 5.76783 -8.45804 3 47 
-7.85487 6.22601 -8.0356 3 47 
-9.69047 4.53072 -10.7299 1 64 
-9.36448 4.35897 -10.7795 2 64 
-10.0155 4.70148 -10.6823 2 64 
-9.37138 4.36307 -10.7783 3 64 
-10.0086 4.69837 -10.6826 3 64 
-6.14613 9.54414 -8.38546 1 94 
-6.15369 9.18115 -8.46244 2 94 
-6.13956 9.90614 -8.30547 2 94 
-6.15268 9.18915 -8.46044 3 94 
-6.13957 9.89814 -8.30747 3 94 
-5.52501 4.45204 -6.74245 1 107 
-5.76088 4.36639 -7.01453 2 107 
-5.28614 4.53865 -6.47143 2 107 
-5.75669 4.36922 -7.00858 3 107 
-5.29233 4.53585 -6.47733 3 107 
-4.82299 7.3593 -5.98743 1 140 
-4.58306 7.11449 -6.1296 2 140 
-5.06393 7.6041 -5.84725 2 140 
-4.58793 7.11966 -6.12566 3 140 
-5.05808 7.59793 -5.84918 3 140 
-10.1035 3.91917 -6.91033 1 145 
-10.1304 3.63344 -7.14431 2 145 
-10.0765 4.20692 -6.67731 2 145 
-10.1294 3.63935 -7.13921 3 145 
-10.0786 4.20102 -6.6824 3 145 
1.12397 8.44456 -6.30786 1 39 
0.967469 8.26539 -6.02332 2 39 
1.27948 8.62374 -6.59243 2 39 
0.970689 8.26945 -6.02916 3 39 
1.27527 8.62068 -6.5866 3 39 
-2.94724 10.4459 -8.8247 1 42 
-2.72036 10.2603 -9.05206 2 42 
-3.17215 10.6304 -8.59629 2 42 
-2.72524 10.2647 -9.04724 3 42 
-3.16824 10.6271 -8.60115 3 42 
-0.486493 5.54649 -6.20627 1 77 
-0.489155 5.23657 -6.0032 2 77 
-0.484848 5.85738 -6.41036 2 77 
-0.488245 5.24245 -6.00836 3 77 
-0.483747 5.85053 -6.40519 3 77 
2.1216 7.46844 -10.1783 1 79 
2.0061 7.15562 -10.0171 2 79 
2.23814 7.78122 -10.3405 2 79 
2.00856 7.16161 -10.0209 3 79 
2.23567 7.77426 -10.3377 3 79 
-1.26558 7.5111 -9.94719 1 86 
-1.54393 7.75128 -9.90028 2 86 
-0.987227 7.26893 -9.99413 2 86 
-1.53795 7.7463 -9.90147 3 86 
-0.993246 7.27494 -9.99493 3 86 
-2.32287 9.3089 -4.76373 1 129 
-2.35621 9.59544 -4.53027 2 129 
-2.28954 9.02136 -4.99718 2 129 
-2.35531 9.58838 -4.53621 3 129 
-2.29046 9.02743 -4.99123 3 129 
2.79309 10.7312 -8.31584 1 141 
2.73878 10.5778 -8.64875 2 141 
2.73984 10.5814 -8.64152 3 141 
10.1724 7.03599 -4.0575 1 30 
9.86464 6.92342 -4.23325 2 30 
10.4801 7.14758 -3.88476 2 30 
9.87174 6.92627 -4.2283 3 30 
10.474 7.14569 -3.88671 3 30 
7.22546 8.16472 -6.38366 1 62 
7.49143 8.32053 -6.17412 2 62 
6.96043 8.00997 -6.59219 2 62 
7.48464 8.31721 -6.1792 3 62 
6.96618 8.01427 -6.58615 3 62 
4.00277 6.55146 -5.72399 1 80 
3.67921 6.63016 -5.88683 2 80 
4.32736 6.47475 -5.56114 2 80 
3.6862 6.62802 -5.88392 3 80 
4.31936 6.47691 -5.56404 3 80 
9.48142 10.7233 -7.2407 1 99 
9.64646 10.6596 -7.56634 2 99 
9.31642 10.789 -6.91511 2 99 
9.64255 10.6608 -7.56032 3 99 
9.3193 10.7878 -6.92312 3 99 
9.86586 6.4527 -7.69187 1 109 
9.69731 6.63553 -7.41807 2 109 
10.0324 6.26792 -7.96767 2 109 
9.70119 6.63268 -7.42325 3 109 
10.0285 6.27273 -7.96143 3 109 
7.05585 3.84829 -5.0988 1 139 
6.75053 3.80471 -4.8942 2 139 
7.36131 3.89191 -5.3054 2 139 
6.75678 3.80587 -4.89775 3 139 
7.35498 3.89173 -5.30083 3 139 
-5.69692 -10.2094 1.55607 1 7 
-5.47684 -10.4849 1.43831 2 7 
-5.91603 -9.93395 1.67082 2 7 
-5.48192 -10.479 1.44144 3 7 
-5.91095 -9.93883 1.66871 3 7 
-9.68416 -10.603 3.01637 1 28 
-9.95936 -10.3618 2.95709 2 28 
-9.95453 -10.367 2.95809 3 28 
-9.53526 -6.83293 2.52869 1 60 
-9.35983 -6.93689 2.21918 2 60 
-9.7107 -6.72798 2.83823 2 60 
-9.36281 -6.93511 2.22724 3 60 
-9.70671 -6.73079 2.83214 3 60 
-7.80639 -6.08637 -1.75038 1 92 
-7.78034 -6.11365 -1.38301 2 92 
-7.83144 -6.06003 -2.11979 2 92 
-7.78034 -6.11246 -1.38998 3 92 
-7.83144 -6.06125 -2.11182 3 92 
-4.66334 -5.30858 0.519447 1 104 
-4.66264 -5.31455 0.149299 2 104 
-4.66406 -5.30262 0.890596 2 104 
-4.66176 -5.31466 0.157313 3 104 
-4.66392 -5.3035 0.881584 3 104 
-9.04529 -10.7637 -1.43442 2 106 
-9.04486 -10.7675 -1.44253 3 106 
-10.5786 -5.45644 0.309127 2 134 
-10.5865 -5.45888 0.306306 3 134 
0.77552 -7.14036 -3.20546 1 31 
0.724665 -6.89842 -2.92861 2 31 
0.82729 -7.38124 -3.48128 2 31 
0.72521 -6.90459 -2.93544 3 31 
0.82691 -7.37711 -3.4764 3 31 
-1.4827 -7.09188 2.43557 1 34 
-1.78864 -7.04888 2.6413 2 34 
-1.17671 -7.13287 2.22979 2 34 
-1.78157 -7.04912 2.63743 3 34 
-1.1828 -7.13264 2.23468 3 34 
0.597884 -10.57 0.187245 2 68 
0.598082 -10.5761 0.181349 3 68 
-2.83437 -6.40592 -2.32717 1 103 
-2.70614 -6.11361 -2.13882 2 103 
-2.96261 -6.69821 -2.51652 2 103 
-2.7083 -6.11854 -2.14383 3 103 
-2.95942 -6.69231 -2.51052 3 103 
-0.285508 -3.63515 2.4154 2 114 
-0.281459 -3.63123 2.41038 3 114 
2.76386 -6.24827 -1.08903 1 133 
3.00963 -6.35531 -1.34642 2 133 
2.51813 -6.14225 -0.833626 2 133 
3.0035 -6.35324 -1.34058 3 133 
2.52324 -6.1443 -0.83849 3 133 
7.72293 -5.13946 3.53461 1 32 
7.59181 -4.88597 3.29599 2 32 
7.59389 -4.8918 3.30117 3 32 
9.97998 -5.24675 -3.56197 2 44 
9.97982 -5.23969 -3.5648 3 44 
8.98561 -8.68511 0.271862 1 50 