Title

1324 atoms
10 atom types
800 bonds
800 bond types

-12.834500 12.834500 xlo xhi
-12.834500 12.834500 ylo yhi
-12.834500 12.834500 zlo zhi


Atoms

1 1 1 1.85300 7.568 5.314 -7.516 #ZN
2 1 1 1.85300 5.335 -5.287 -5.283 #ZN
3 1 1 1.85300 5.335 7.547 7.551 #ZN
4 1 1 1.85300 5.335 -7.520 7.551 #ZN
5 1 1 1.85300 -5.266 7.547 -7.516 #ZN
6 1 1 1.85300 5.335 5.314 5.318 #ZN
7 1 1 1.85300 7.568 -5.287 -7.516 #ZN
8 1 1 1.85300 -5.266 -7.520 7.551 #ZN
9 1 1 1.85300 -5.266 5.314 -5.283 #ZN
10 1 1 1.85300 -5.266 -5.287 5.318 #ZN
11 1 1 1.85300 -7.499 -5.287 -7.516 #ZN
12 1 1 1.85300 7.568 -7.520 5.318 #ZN
13 1 1 1.85300 -7.499 -7.520 5.318 #ZN
14 1 1 1.85300 7.568 -5.287 7.551 #ZN
15 1 1 1.85300 7.568 7.547 5.318 #ZN
16 1 1 1.85300 5.335 -7.520 -7.516 #ZN
17 1 1 1.85300 -5.266 -7.520 -7.516 #ZN
18 1 1 1.85300 -7.499 7.547 -5.283 #ZN
19 1 1 1.85300 -7.499 -5.287 7.551 #ZN
20 1 1 1.85300 -7.499 -7.520 -5.283 #ZN
21 1 1 1.85300 -5.266 -5.287 -5.283 #ZN
22 1 1 1.85300 -7.499 5.314 7.551 #ZN
23 1 1 1.85300 -7.499 5.314 -7.516 #ZN
24 1 1 1.85300 -5.266 5.314 5.318 #ZN
25 1 1 1.85300 5.335 7.547 -7.516 #ZN
26 1 1 1.85300 5.335 -5.287 5.318 #ZN
27 1 1 1.85300 5.335 5.314 -5.283 #ZN
28 1 1 1.85300 7.568 -7.520 -5.283 #ZN
29 1 1 1.85300 7.568 7.547 -5.283 #ZN
30 1 1 1.85300 -7.499 7.547 5.318 #ZN
31 1 1 1.85300 7.568 5.314 7.551 #ZN
32 1 1 1.85300 -5.266 7.547 7.551 #ZN
33 1 2 -1.00690 3.472 7.247 7.251 #O2
34 1 2 -1.00690 -7.199 5.614 -9.380 #O2
35 1 2 -1.00690 -7.199 3.451 7.251 #O2
36 1 2 -1.00690 -9.363 7.247 -5.583 #O2
37 1 2 -1.00690 7.268 -7.220 3.455 #O2
38 1 2 -1.00690 3.472 -5.587 -5.583 #O2
39 1 2 -1.00690 7.268 3.451 -7.216 #O2
40 1 2 -1.00690 -5.566 7.247 9.415 #O2
41 1 2 -1.00690 -3.403 5.614 -5.583 #O2
42 1 2 -1.00690 7.268 3.451 7.251 #O2
43 1 2 -1.00690 7.268 -9.384 5.618 #O2
44 1 2 -1.00690 -7.199 -9.384 5.618 #O2
45 1 2 -1.00690 9.432 -5.587 -7.216 #O2
46 1 2 -1.00690 -5.566 3.451 -5.583 #O2
47 1 2 -1.00690 -5.566 9.411 -7.216 #O2
48 1 2 -1.00690 -3.403 7.247 -7.216 #O2
49 1 2 -1.00690 9.432 5.614 -7.216 #O2
50 1 2 -1.00690 5.635 -3.424 5.618 #O2
51 1 2 -1.00690 3.472 -5.587 5.618 #O2
52 1 2 -1.00690 -5.566 -7.220 -9.380 #O2
53 1 2 -1.00690 7.268 -5.587 9.415 #O2
54 1 2 -1.00690 7.268 9.411 -5.583 #O2
55 1 2 -1.00690 -3.403 -7.220 -7.216 #O2
56 1 2 -1.00690 7.268 7.247 -3.420 #O2
57 1 3 -2.25680 -6.383 -6.404 6.435 #O1
58 1 2 -1.00690 -7.199 -5.587 9.415 #O2
59 1 2 -1.00690 -3.403 -5.587 5.618 #O2
60 1 2 -1.00690 7.268 -5.587 -9.380 #O2
61 1 2 -1.00690 -5.566 -3.424 -5.583 #O2
62 1 2 -1.00690 7.268 -7.220 -3.420 #O2
63 1 2 -1.00690 9.432 5.614 7.251 #O2
64 1 2 -1.00690 5.635 -7.220 -9.380 #O2
65 1 2 -1.00690 -5.566 5.614 -3.420 #O2
66 1 2 -1.00690 5.635 -5.587 -3.420 #O2
67 1 2 -1.00690 -9.363 5.614 7.251 #O2
68 1 2 -1.00690 9.432 7.247 5.618 #O2
69 1 2 -1.00690 7.268 -9.384 -5.583 #O2
70 1 2 -1.00690 -5.566 7.247 -9.380 #O2
71 1 2 -1.00690 -5.566 -5.587 3.455 #O2
72 1 2 -1.00690 -7.199 9.411 5.618 #O2
73 1 2 -1.00690 7.268 -3.424 -7.216 #O2
74 1 2 -1.00690 -7.199 -3.424 -7.216 #O2
75 1 2 -1.00690 5.635 3.451 5.618 #O2
76 1 2 -1.00690 9.432 -7.220 5.618 #O2
77 1 2 -1.00690 -7.199 -3.424 7.251 #O2
78 1 2 -1.00690 9.432 -7.220 -5.583 #O2
79 1 2 -1.00690 -3.403 -7.220 7.251 #O2
80 1 2 -1.00690 -9.363 -5.587 7.251 #O2
81 1 3 -2.25680 -6.383 -6.404 -6.400 #O1
82 1 2 -1.00690 7.268 7.247 3.455 #O2
83 1 2 -1.00690 3.472 5.614 5.618 #O2
84 1 2 -1.00690 -9.363 5.614 -7.216 #O2
85 1 2 -1.00690 5.635 5.614 3.455 #O2
86 1 2 -1.00690 -7.199 9.411 -5.583 #O2
87 1 2 -1.00690 5.635 -5.587 3.455 #O2
88 1 2 -1.00690 -9.363 7.247 5.618 #O2
89 1 2 -1.00690 -5.566 -9.384 -7.216 #O2
90 1 2 -1.00690 -5.566 -3.424 5.618 #O2
91 1 2 -1.00690 -5.566 -7.220 9.415 #O2
92 1 2 -1.00690 5.635 7.247 9.415 #O2
93 1 2 -1.00690 -7.199 -7.220 3.455 #O2
94 1 2 -1.00690 5.635 -7.220 9.415 #O2
95 1 2 -1.00690 7.268 5.614 9.415 #O2
96 1 2 -1.00690 7.268 5.614 -9.380 #O2
97 1 2 -1.00690 -7.199 -5.587 -9.380 #O2
98 1 2 -1.00690 -7.199 7.247 -3.420 #O2
99 1 3 -2.25680 6.452 6.431 -6.400 #O1
100 1 3 -2.25680 6.452 -6.404 6.435 #O1
101 1 3 -2.25680 -6.383 6.431 6.435 #O1
102 1 2 -1.00690 5.635 9.411 -7.216 #O2
103 1 2 -1.00690 -7.199 7.247 3.455 #O2
104 1 2 -1.00690 7.268 -3.424 7.251 #O2
105 1 2 -1.00690 -7.199 3.451 -7.216 #O2
106 1 2 -1.00690 5.635 9.411 7.251 #O2
107 1 2 -1.00690 -5.566 5.614 3.455 #O2
108 1 2 -1.00690 7.268 9.411 5.618 #O2
109 1 3 -2.25680 6.452 -6.404 -6.400 #O1
110 1 3 -2.25680 -6.383 6.431 -6.400 #O1
111 1 2 -1.00690 9.432 -5.587 7.251 #O2
112 1 2 -1.00690 -3.403 7.247 7.251 #O2
113 1 2 -1.00690 -3.403 5.614 5.618 #O2
114 1 2 -1.00690 5.635 3.451 -5.583 #O2
115 1 2 -1.00690 -7.199 5.614 9.415 #O2
116 1 2 -1.00690 -3.403 -5.587 -5.583 #O2
117 1 2 -1.00690 -9.363 -5.587 -7.216 #O2
118 1 2 -1.00690 -9.363 -7.220 -5.583 #O2
119 1 2 -1.00690 5.635 7.247 -9.380 #O2
120 1 2 -1.00690 -5.566 9.411 7.251 #O2
121 1 2 -1.00690 9.432 7.247 -5.583 #O2
122 1 2 -1.00690 5.635 -9.384 -7.216 #O2
123 1 2 -1.00690 3.472 5.614 -5.583 #O2
124 1 2 -1.00690 -5.566 3.451 5.618 #O2
125 1 2 -1.00690 5.635 5.614 -3.420 #O2
126 1 2 -1.00690 -7.199 -7.220 -3.420 #O2
127 1 2 -1.00690 -7.199 -9.384 -5.583 #O2
128 1 3 -2.25680 6.452 6.431 6.435 #O1
129 1 2 -1.00690 5.635 -9.384 7.251 #O2
130 1 2 -1.00690 -9.363 -7.220 5.618 #O2
131 1 2 -1.00690 3.472 7.247 -7.216 #O2
132 1 2 -1.00690 3.472 -7.220 -7.216 #O2
133 1 2 -1.00690 -5.566 -5.587 -3.420 #O2
134 1 2 -1.00690 3.472 -7.220 7.251 #O2
135 1 2 -1.00690 5.635 -3.424 -5.583 #O2
136 1 2 -1.00690 -5.566 -9.384 7.251 #O2
137 1 4 0.14890 5.017 7.866 -11.658 #H
138 1 4 0.14890 11.709 7.866 5.000 #H
139 1 4 0.14890 -7.818 11.688 -4.965 #H
140 1 4 0.14890 5.017 7.866 11.691 #H
141 1 4 0.14890 -7.818 -1.147 7.870 #H
142 1 4 0.14890 11.709 -4.969 -7.835 #H
143 1 4 0.14890 1.195 -7.839 -7.835 #H
144 1 4 0.14890 1.195 7.866 7.870 #H
145 1 4 0.14890 1.195 4.996 -4.965 #H
146 1 4 0.14890 -4.948 11.688 -7.835 #H
147 1 4 0.14890 -4.948 -1.147 5.000 #H
148 1 4 0.14890 5.017 -11.661 7.870 #H
149 1 4 0.14890 -1.126 7.866 7.870 #H
150 1 4 0.14890 7.887 -11.661 5.000 #H
151 1 4 0.14890 -7.818 4.996 11.691 #H
152 1 4 0.14890 1.195 -7.839 7.870 #H
153 1 4 0.14890 5.017 11.688 -7.835 #H
154 1 4 0.14890 5.017 -1.147 5.000 #H
155 1 4 0.14890 -4.948 1.174 5.000 #H
156 1 4 0.14890 1.195 -4.969 -4.965 #H
157 1 4 0.14890 5.017 -1.147 -4.965 #H
158 1 4 0.14890 -11.640 -4.969 7.870 #H
159 1 4 0.14890 7.887 7.866 1.178 #H
160 1 4 0.14890 5.017 -11.661 -7.835 #H
161 1 4 0.14890 -7.818 11.688 5.000 #H
162 1 4 0.14890 5.017 -4.969 -1.143 #H
163 1 4 0.14890 5.017 1.174 -4.965 #H
164 1 4 0.14890 -4.948 -7.839 11.691 #H
165 1 4 0.14890 5.017 4.996 1.178 #H
166 1 4 0.14890 -1.126 -4.969 5.000 #H
167 1 4 0.14890 1.195 4.996 5.000 #H
168 1 4 0.14890 7.887 11.688 5.000 #H
169 1 4 0.14890 -1.126 7.866 -7.835 #H
170 1 4 0.14890 -4.948 7.866 -11.658 #H
171 1 4 0.14890 11.709 4.996 7.870 #H
172 1 4 0.14890 7.887 7.866 -1.143 #H
173 1 4 0.14890 5.017 1.174 5.000 #H
174 1 4 0.14890 7.887 -7.839 1.178 #H
175 1 4 0.14890 7.887 -4.969 11.691 #H
176 1 4 0.14890 1.195 7.866 -7.835 #H
177 1 4 0.14890 7.887 -1.147 -7.835 #H
178 1 4 0.14890 7.887 -11.661 -4.965 #H
179 1 4 0.14890 -7.818 -4.969 11.691 #H
180 1 4 0.14890 7.887 1.174 7.870 #H
181 1 4 0.14890 -1.126 -4.969 -4.965 #H
182 1 4 0.14890 11.709 -7.839 -4.965 #H
183 1 4 0.14890 -7.818 -11.661 -4.965 #H
184 1 4 0.14890 -11.640 -7.839 5.000 #H
185 1 4 0.14890 7.887 4.996 11.691 #H
186 1 4 0.14890 7.887 -7.839 -1.143 #H
187 1 4 0.14890 11.709 4.996 -7.835 #H
188 1 4 0.14890 -11.640 -7.839 -4.965 #H
189 1 4 0.14890 -11.640 7.866 -4.965 #H
190 1 4 0.14890 -11.640 4.996 7.870 #H
191 1 4 0.14890 5.017 11.688 7.870 #H
192 1 4 0.14890 -7.818 4.996 -11.658 #H
193 1 4 0.14890 11.709 -4.969 7.870 #H
194 1 4 0.14890 -7.818 -7.839 1.178 #H
195 1 4 0.14890 7.887 -1.147 7.870 #H
196 1 4 0.14890 -1.126 -7.839 7.870 #H
197 1 4 0.14890 -7.818 -11.661 5.000 #H
198 1 4 0.14890 -1.126 -7.839 -7.835 #H
199 1 4 0.14890 -4.948 4.996 1.178 #H
200 1 4 0.14890 11.709 7.866 -4.965 #H
201 1 4 0.14890 -4.948 -1.147 -4.965 #H
202 1 4 0.14890 5.017 -4.969 1.178 #H
203 1 4 0.14890 -1.126 4.996 5.000 #H
204 1 4 0.14890 -4.948 11.688 7.870 #H
205 1 4 0.14890 -4.948 -7.839 -11.658 #H
206 1 4 0.14890 -7.818 7.866 -1.143 #H
207 1 4 0.14890 7.887 11.688 -4.965 #H
208 1 4 0.14890 -7.818 7.866 1.178 #H
209 1 4 0.14890 -4.948 1.174 -4.965 #H
210 1 4 0.14890 -4.948 -4.969 -1.143 #H
211 1 4 0.14890 5.017 -7.839 11.691 #H
212 1 4 0.14890 7.887 4.996 -11.658 #H
213 1 4 0.14890 -7.818 -4.969 -11.658 #H
214 1 4 0.14890 -4.948 4.996 -1.143 #H
215 1 4 0.14890 7.887 1.174 -7.835 #H
216 1 4 0.14890 5.017 4.996 -1.143 #H
217 1 4 0.14890 -1.126 4.996 -4.965 #H
218 1 4 0.14890 5.017 -7.839 -11.658 #H
219 1 4 0.14890 -7.818 -7.839 -1.143 #H
220 1 4 0.14890 -4.948 7.866 11.691 #H
221 1 4 0.14890 -7.818 1.174 -7.835 #H
222 1 4 0.14890 -4.948 -11.661 -7.835 #H
223 1 4 0.14890 -7.818 1.174 7.870 #H
224 1 4 0.14890 1.195 -4.969 5.000 #H
225 1 4 0.14890 -11.640 4.996 -7.835 #H
226 1 4 0.14890 -7.818 -1.147 -7.835 #H
227 1 4 0.14890 -4.948 -4.969 1.178 #H
228 1 4 0.14890 11.709 -7.839 5.000 #H
229 1 4 0.14890 7.887 -4.969 -11.658 #H
230 1 4 0.14890 -4.948 -11.661 7.870 #H
231 1 4 0.14890 -11.640 7.866 5.000 #H
232 1 4 0.14890 -11.640 -4.969 -7.835 #H
233 1 5 1.09830 6.452 -9.985 -6.400 #C1
234 1 6 -0.05180 -12.125 7.280 5.585 #C3
235 1 5 1.09830 10.033 -6.404 6.435 #C1
236 1 7 -0.13780 11.488 6.431 -6.400 #C2
237 1 5 1.09830 2.871 6.431 -6.400 #C1
238 1 7 -0.13780 -1.346 6.431 6.435 #C2
239 1 7 -0.13780 1.415 6.431 -6.400 #C2
240 1 7 -0.13780 -11.419 6.431 6.435 #C2
241 1 5 1.09830 -2.802 6.431 6.435 #C1
242 1 5 1.09830 6.452 -6.404 -2.819 #C1
243 1 7 -0.13780 1.415 -6.404 6.435 #C2
244 1 5 1.09830 -6.383 -6.404 -2.819 #C1
245 1 5 1.09830 -6.383 6.431 2.854 #C1
246 1 6 -0.05180 0.710 7.280 -7.249 #C3
247 1 5 1.09830 6.452 -6.404 2.854 #C1
248 1 7 -0.13780 6.452 6.431 -11.437 #C2
249 1 7 -0.13780 -6.383 11.467 6.435 #C2
250 1 5 1.09830 -6.383 -6.404 10.015 #C1
251 1 6 -0.05180 -5.533 7.280 -12.143 #C3
252 1 7 -0.13780 -6.383 -6.404 -11.437 #C2
253 1 7 -0.13780 -6.383 -1.367 6.435 #C2
254 1 6 -0.05180 0.710 -7.253 7.284 #C3
255 1 7 -0.13780 -6.383 6.431 11.470 #C2
256 1 6 -0.05180 7.301 -5.554 -12.143 #C3
257 1 7 -0.13780 6.452 -6.404 11.470 #C2
258 1 5 1.09830 2.871 -6.404 6.435 #C1
259 1 7 -0.13780 -11.419 -6.404 -6.400 #C2
260 1 6 -0.05180 -0.641 -7.253 7.284 #C3
261 1 6 -0.05180 -7.232 -5.554 -12.143 #C3
262 1 7 -0.13780 6.452 -6.404 1.398 #C2
263 1 7 -0.13780 -6.383 6.431 1.398 #C2
264 1 7 -0.13780 6.452 6.431 -1.363 #C2
265 1 5 1.09830 6.452 6.431 -2.819 #C1
266 1 6 -0.05180 -5.533 0.689 5.585 #C3
267 1 6 -0.05180 0.710 7.280 7.284 #C3
268 1 7 -0.13780 6.452 11.467 6.435 #C2
269 1 7 -0.13780 6.452 1.394 6.435 #C2
270 1 5 1.09830 6.452 -9.985 6.435 #C1
271 1 7 -0.13780 -6.383 11.467 -6.400 #C2
272 1 6 -0.05180 5.602 5.581 0.693 #C3
273 1 5 1.09830 6.452 2.850 6.435 #C1
274 1 6 -0.05180 -5.533 -7.253 -12.143 #C3
275 1 6 -0.05180 0.710 -5.554 -5.550 #C3
276 1 7 -0.13780 6.452 6.431 1.398 #C2
277 1 7 -0.13780 6.452 -11.440 -6.400 #C2
278 1 7 -0.13780 -6.383 1.394 -6.400 #C2
279 1 5 1.09830 -6.383 2.850 -6.400 #C1
280 1 7 -0.13780 -1.346 6.431 -6.400 #C2
281 1 5 1.09830 -2.802 -6.404 6.435 #C1
282 1 7 -0.13780 11.488 -6.404 -6.400 #C2
283 1 6 -0.05180 12.194 7.280 5.585 #C3
284 1 5 1.09830 -2.802 6.431 -6.400 #C1
285 1 5 1.09830 6.452 10.012 6.435 #C1
286 1 7 -0.13780 -1.346 -6.404 6.435 #C2
287 1 7 -0.13780 1.415 6.431 6.435 #C2
288 1 7 -0.13780 1.415 -6.404 -6.400 #C2
289 1 5 1.09830 2.871 -6.404 -6.400 #C1
290 1 7 -0.13780 -11.419 -6.404 6.435 #C2
291 1 5 1.09830 2.871 6.431 6.435 #C1
292 1 7 -0.13780 -11.419 6.431 -6.400 #C2
293 1 6 -0.05180 5.602 -0.662 5.585 #C3
294 1 7 -0.13780 6.452 11.467 -6.400 #C2
295 1 5 1.09830 -2.802 -6.404 -6.400 #C1
296 1 7 -0.13780 6.452 1.394 -6.400 #C2
297 1 5 1.09830 6.452 2.850 -6.400 #C1
298 1 7 -0.13780 -6.383 -1.367 -6.400 #C2
299 1 5 1.09830 -6.383 -2.823 -6.400 #C1
300 1 6 -0.05180 -7.232 12.173 5.585 #C3
301 1 7 -0.13780 6.452 -11.440 6.435 #C2
302 1 7 -0.13780 -6.383 -11.440 -6.400 #C2
303 1 6 -0.05180 5.602 7.280 -12.143 #C3
304 1 7 -0.13780 11.488 -6.404 6.435 #C2
305 1 6 -0.05180 5.602 -7.253 12.177 #C3
306 1 7 -0.13780 -6.383 1.394 6.435 #C2
307 1 5 1.09830 -6.383 2.850 6.435 #C1
308 1 5 1.09830 6.452 6.431 2.854 #C1
309 1 7 -0.13780 -6.383 6.431 -11.437 #C2
310 1 5 1.09830 6.452 -6.404 -9.981 #C1
311 1 7 -0.13780 6.452 -6.404 -1.363 #C2
312 1 7 -0.13780 6.452 -6.404 -11.437 #C2
313 1 7 -0.13780 -6.383 -6.404 1.398 #C2
314 1 5 1.09830 -6.383 -6.404 2.854 #C1
315 1 5 1.09830 10.033 6.431 -6.400 #C1
316 1 7 -0.13780 -6.383 -6.404 11.470 #C2
317 1 7 -0.13780 6.452 -1.367 6.435 #C2
318 1 5 1.09830 6.452 -2.823 6.435 #C1
319 1 7 -0.13780 6.452 6.431 11.470 #C2
320 1 7 -0.13780 -6.383 6.431 -1.363 #C2
321 1 5 1.09830 -6.383 6.431 -2.819 #C1
322 1 6 -0.05180 5.602 12.173 7.284 #C3
323 1 6 -0.05180 -7.232 -0.662 -7.249 #C3
324 1 6 -0.05180 7.301 -5.554 12.177 #C3
325 1 6 -0.05180 -5.533 -0.662 -5.550 #C3
326 1 6 -0.05180 -5.533 5.581 -0.658 #C3
327 1 6 -0.05180 7.301 5.581 12.177 #C3
328 1 6 -0.05180 -7.232 5.581 -12.143 #C3
329 1 5 1.09830 -6.383 -9.985 6.435 #C1
330 1 6 -0.05180 12.194 -5.554 -7.249 #C3
331 1 5 1.09830 -6.383 6.431 10.015 #C1
332 1 7 -0.13780 -6.383 -11.440 6.435 #C2
333 1 6 -0.05180 -0.641 7.280 -7.249 #C3
334 1 6 -0.05180 -7.232 -12.146 5.585 #C3
335 1 6 -0.05180 -12.125 -5.554 7.284 #C3
336 1 6 -0.05180 -0.641 5.581 -5.550 #C3
337 1 6 -0.05180 5.602 -5.554 0.693 #C3
338 1 7 -0.13780 6.452 -1.367 -6.400 #C2
339 1 6 -0.05180 -0.641 -5.554 5.585 #C3
340 1 6 -0.05180 7.301 -0.662 7.284 #C3
341 1 5 1.09830 6.452 -6.404 10.015 #C1
342 1 6 -0.05180 5.602 -7.253 -12.143 #C3
343 1 6 -0.05180 5.602 0.689 -5.550 #C3
344 1 6 -0.05180 12.194 5.581 7.284 #C3
345 1 6 -0.05180 -7.232 -5.554 12.177 #C3
346 1 5 1.09830 -6.383 10.012 -6.400 #C1
347 1 6 -0.05180 0.710 -7.253 -7.249 #C3
348 1 6 -0.05180 5.602 0.689 5.585 #C3
349 1 6 -0.05180 7.301 -0.662 -7.249 #C3
350 1 6 -0.05180 -7.232 0.689 -7.249 #C3
351 1 7 -0.13780 11.488 6.431 6.435 #C2
352 1 5 1.09830 6.452 6.431 10.015 #C1
353 1 6 -0.05180 -12.125 -7.253 5.585 #C3
354 1 6 -0.05180 -7.232 12.173 -5.550 #C3
355 1 6 -0.05180 5.602 -0.662 -5.550 #C3
356 1 5 1.09830 -6.383 -2.823 6.435 #C1
357 1 6 -0.05180 -5.533 12.173 -7.249 #C3
358 1 5 1.09830 6.452 6.431 -9.981 #C1
359 1 5 1.09830 6.452 10.012 -6.400 #C1
360 1 5 1.09830 -6.383 -6.404 -9.981 #C1
361 1 6 -0.05180 5.602 7.280 12.177 #C3
362 1 6 -0.05180 12.194 -7.253 -5.550 #C3
363 1 6 -0.05180 7.301 7.280 0.693 #C3
364 1 6 -0.05180 -7.232 -7.253 0.693 #C3
365 1 6 -0.05180 -5.533 5.581 0.693 #C3
366 1 6 -0.05180 -5.533 -0.662 5.585 #C3
367 1 6 -0.05180 -5.533 -12.146 7.284 #C3
368 1 6 -0.05180 -12.125 7.280 -5.550 #C3
369 1 6 -0.05180 5.602 -12.146 -7.249 #C3
370 1 5 1.09830 10.033 6.431 6.435 #C1
371 1 6 -0.05180 -5.533 -5.554 0.693 #C3
372 1 5 1.09830 6.452 -2.823 -6.400 #C1
373 1 6 -0.05180 -12.125 5.581 7.284 #C3
374 1 6 -0.05180 -0.641 -7.253 -7.249 #C3
375 1 6 -0.05180 5.602 12.173 -7.249 #C3
376 1 6 -0.05180 -0.641 5.581 5.585 #C3
377 1 6 -0.05180 7.301 0.689 7.284 #C3
378 1 6 -0.05180 -5.533 12.173 7.284 #C3
379 1 6 -0.05180 0.710 5.581 -5.550 #C3
380 1 6 -0.05180 12.194 5.581 -7.249 #C3
381 1 6 -0.05180 -5.533 -7.253 12.177 #C3
382 1 6 -0.05180 12.194 -5.554 7.284 #C3
383 1 6 -0.05180 -7.232 0.689 7.284 #C3
384 1 5 1.09830 -9.964 -6.404 -6.400 #C1
385 1 6 -0.05180 7.301 7.280 -0.658 #C3
386 1 7 -0.13780 -1.346 -6.404 -6.400 #C2
387 1 6 -0.05180 -0.641 7.280 7.284 #C3
388 1 6 -0.05180 -7.232 -0.662 7.284 #C3
389 1 6 -0.05180 12.194 7.280 -5.550 #C3
390 1 5 1.09830 -6.383 10.012 6.435 #C1
391 1 6 -0.05180 12.194 -7.253 5.585 #C3
392 1 6 -0.05180 -5.533 7.280 12.177 #C3
393 1 6 -0.05180 -5.533 0.689 -5.550 #C3
394 1 6 -0.05180 0.710 -5.554 5.585 #C3
395 1 6 -0.05180 5.602 -12.146 7.284 #C3
396 1 6 -0.05180 -12.125 -5.554 -7.249 #C3
397 1 5 1.09830 -6.383 6.431 -9.981 #C1
398 1 6 -0.05180 -7.232 7.280 -0.658 #C3
399 1 6 -0.05180 -5.533 -12.146 -7.249 #C3
400 1 5 1.09830 -6.383 -9.985 -6.400 #C1
401 1 6 -0.05180 5.602 -5.554 -0.658 #C3
402 1 6 -0.05180 7.301 12.173 5.585 #C3
403 1 6 -0.05180 -5.533 -5.554 -0.658 #C3
404 1 6 -0.05180 7.301 -7.253 -0.658 #C3
405 1 7 -0.13780 -6.383 -6.404 -1.363 #C2
406 1 6 -0.05180 -12.125 5.581 -7.249 #C3
407 1 6 -0.05180 7.301 12.173 -5.550 #C3
408 1 5 1.09830 -9.964 6.431 -6.400 #C1
409 1 6 -0.05180 5.602 5.581 -0.658 #C3
410 1 6 -0.05180 0.710 5.581 5.585 #C3
411 1 5 1.09830 -9.964 6.431 6.435 #C1
412 1 5 1.09830 -9.964 -6.404 6.435 #C1
413 1 6 -0.05180 -7.232 -7.253 -0.658 #C3
414 1 6 -0.05180 -7.232 -12.146 -5.550 #C3
415 1 6 -0.05180 7.301 5.581 -12.143 #C3
416 1 6 -0.05180 -7.232 7.280 0.693 #C3
417 1 6 -0.05180 -0.641 -5.554 -5.550 #C3
418 1 6 -0.05180 7.301 -7.253 0.693 #C3
419 1 6 -0.05180 7.301 0.689 -7.249 #C3
420 1 6 -0.05180 7.301 -12.146 -5.550 #C3
421 1 5 1.09830 10.033 -6.404 -6.400 #C1
422 1 6 -0.05180 -7.232 5.581 12.177 #C3
423 1 6 -0.05180 -12.194 -7.253 -5.550 #C3
424 1 6 -0.05180 7.301 -12.173 5.585 #C3
425 2 8 -0.58680 9.767 0.057 -2.316 #CHG
426 2 9 0.14670 8.803 -0.307 -1.937 #CHE
427 2 9 0.14670 10.121 0.885 -1.688 #CHE
428 2 9 0.14670 10.502 -0.760 -2.293 #CHE
429 2 9 0.14670 9.645 0.409 -3.350 #CHE
430 2 10 0.00000 9.053 -0.212 -2.035 #MOV
431 2 10 0.00000 10.029 0.670 -1.850 #MOV
432 2 10 0.00000 10.311 -0.549 -2.299 #MOV
433 2 10 0.00000 9.674 0.319 -3.082 #MOV
434 3 8 -0.58680 11.468 12.770 -5.228 #CHG
435 3 9 0.14670 10.999 13.272 -4.371 #CHE
436 3 9 0.14670 11.668 11.720 -4.974 #CHE
437 3 9 0.14670 10.793 12.815 -6.093 #CHE
438 3 9 0.14670 12.414 13.273 -5.475 #CHE
439 3 10 0.00000 11.121 13.141 -4.593 #MOV
440 3 10 0.00000 11.616 11.992 -5.039 #MOV
441 3 10 0.00000 10.968 12.804 -5.869 #MOV
442 3 10 0.00000 12.169 13.142 -5.408 #MOV
443 4 8 -0.58680 -5.068 -1.086 -0.675 #CHG
444 4 9 0.14670 -4.449 -0.597 0.090 #CHE
445 4 9 0.14670 -5.861 -1.668 -0.189 #CHE
446 4 9 0.14670 -5.518 -0.322 -1.323 #CHE
447 4 9 0.14670 -4.441 -1.756 -1.280 #CHE
448 4 10 0.00000 -4.610 -0.725 -0.108 #MOV
449 4 10 0.00000 -5.656 -1.517 -0.314 #MOV
450 4 10 0.00000 -5.401 -0.519 -1.155 #MOV
451 4 10 0.00000 -4.602 -1.583 -1.121 #MOV
452 5 8 -0.58680 -1.236 -12.012 6.587 #CHG
453 5 9 0.14670 -2.008 -12.599 7.104 #CHE
454 5 9 0.14670 -1.617 -11.002 6.384 #CHE
455 5 9 0.14670 -0.342 -11.945 7.222 #CHE
456 5 9 0.14670 -0.976 -12.502 5.639 #CHE
457 5 10 0.00000 -1.808 -12.446 6.969 #MOV
458 5 10 0.00000 -1.519 -11.264 6.437 #MOV
459 5 10 0.00000 -0.574 -11.963 7.058 #MOV
460 5 10 0.00000 -1.046 -12.376 5.884 #MOV
461 6 8 -0.58680 2.450 -3.009 2.851 #CHG
462 6 9 0.14670 3.108 -2.663 3.660 #CHE
463 6 9 0.14670 2.813 -2.620 1.890 #CHE
464 6 9 0.14670 2.449 -4.107 2.824 #CHE
465 6 9 0.14670 1.427 -2.647 3.028 #CHE
466 6 10 0.00000 2.937 -2.751 3.449 #MOV
467 6 10 0.00000 2.720 -2.720 2.139 #MOV
468 6 10 0.00000 2.450 -3.822 2.831 #MOV
469 6 10 0.00000 1.693 -2.738 2.984 #MOV
470 7 8 -0.58680 6.326 -2.032 1.646 #CHG
471 7 9 0.14670 5.380 -1.807 1.137 #CHE
472 7 9 0.14670 6.397 -1.439 2.569 #CHE
473 7 9 0.14670 6.362 -3.102 1.894 #CHE
474 7 9 0.14670 7.168 -1.781 0.987 #CHE
475 7 10 0.00000 5.625 -1.864 1.269 #MOV
476 7 10 0.00000 6.378 -1.593 2.330 #MOV
477 7 10 0.00000 6.352 -2.825 1.830 #MOV
478 7 10 0.00000 6.948 -1.843 1.156 #MOV
479 8 8 -0.58680 3.520 9.572 -4.697 #CHG
480 8 9 0.14670 2.869 9.494 -5.577 #CHE
481 8 9 0.14670 3.939 10.586 -4.638 #CHE
482 8 9 0.14670 2.936 9.364 -3.790 #CHE
483 8 9 0.14670 4.339 8.843 -4.779 #CHE
484 8 10 0.00000 3.038 9.516 -5.349 #MOV
485 8 10 0.00000 3.830 10.324 -4.654 #MOV
486 8 10 0.00000 3.087 9.418 -4.025 #MOV
487 8 10 0.00000 4.127 9.033 -4.761 #MOV
488 9 8 -0.58680 -3.750 -3.266 -8.431 #CHG
489 9 9 0.14670 -3.696 -4.138 -9.095 #CHE
490 9 9 0.14670 -3.933 -3.599 -7.401 #CHE
491 9 9 0.14670 -2.801 -2.713 -8.474 #CHE
492 9 9 0.14670 -4.570 -2.608 -8.754 #CHE
493 9 10 0.00000 -3.710 -3.912 -8.922 #MOV
494 9 10 0.00000 -3.886 -3.514 -7.667 #MOV
495 9 10 0.00000 -3.047 -2.857 -8.463 #MOV
496 9 10 0.00000 -4.359 -2.781 -8.671 #MOV
497 10 8 -0.58680 9.887 -7.578 -10.276 #CHG
498 10 9 0.14670 8.794 -7.488 -10.224 #CHE
499 10 9 0.14670 10.212 -7.521 -11.323 #CHE
500 10 9 0.14670 10.350 -6.761 -9.704 #CHE
501 10 9 0.14670 10.197 -8.542 -9.851 #CHE
502 10 10 0.00000 9.078 -7.512 -10.239 #MOV
503 10 10 0.00000 10.127 -7.535 -11.053 #MOV
504 10 10 0.00000 10.230 -6.973 -9.853 #MOV
505 10 10 0.00000 10.114 -8.295 -9.962 #MOV
506 11 8 -0.58680 11.267 -9.032 12.453 #CHG
507 11 9 0.14670 11.166 -9.658 13.349 #CHE
508 11 9 0.14670 10.270 -8.792 12.058 #CHE
509 11 9 0.14670 11.791 -8.102 12.712 #CHE
510 11 9 0.14670 11.841 -9.573 11.688 #CHE
511 11 10 0.00000 11.191 -9.496 13.115 #MOV
512 11 10 0.00000 10.527 -8.854 12.161 #MOV
513 11 10 0.00000 11.655 -8.343 12.646 #MOV
514 11 10 0.00000 11.691 -9.436 11.887 #MOV
515 12 8 -0.58680 -6.212 10.643 2.195 #CHG
516 12 9 0.14670 -5.992 9.632 1.824 #CHE
517 12 9 0.14670 -7.181 10.642 2.712 #CHE
518 12 9 0.14670 -5.424 10.955 2.894 #CHE
519 12 9 0.14670 -6.250 11.344 1.349 #CHE
520 12 10 0.00000 -6.050 9.894 1.921 #MOV
521 12 10 0.00000 -6.930 10.641 2.578 #MOV
522 12 10 0.00000 -5.628 10.873 2.713 #MOV
523 12 10 0.00000 -6.241 11.159 1.566 #MOV
524 13 8 -0.58680 -1.275 0.333 -0.266 #CHG
525 13 9 0.14670 -0.929 -0.423 0.452 #CHE
526 13 9 0.14670 -0.729 1.272 -0.103 #CHE
527 13 9 0.14670 -1.091 -0.024 -1.289 #CHE
528 13 9 0.14670 -2.351 0.507 -0.127 #CHE
529 13 10 0.00000 -1.018 -0.226 0.267 #MOV
530 13 10 0.00000 -0.869 1.028 -0.144 #MOV
531 13 10 0.00000 -1.138 0.068 -1.024 #MOV
532 13 10 0.00000 -2.071 0.462 -0.160 #MOV
533 14 8 -0.58680 -1.804 -2.831 -11.879 #CHG
534 14 9 0.14670 -1.604 -1.754 -11.788 #CHE
535 14 9 0.14670 -2.353 -3.179 -10.995 #CHE
536 14 9 0.14670 -2.406 -3.015 -12.780 #CHE
537 14 9 0.14670 -0.853 -3.375 -11.956 #CHE
538 14 10 0.00000 -1.656 -2.034 -11.810 #MOV
539 14 10 0.00000 -2.212 -3.087 -11.223 #MOV
540 14 10 0.00000 -2.250 -2.967 -12.547 #MOV
541 14 10 0.00000 -1.099 -3.232 -11.934 #MOV
542 15 8 -0.58680 -10.415 10.629 12.348 #CHG
543 15 9 0.14670 -9.750 9.868 11.918 #CHE
544 15 9 0.14670 -9.826 11.508 12.643 #CHE
545 15 9 0.14670 -11.164 10.924 11.600 #CHE
546 15 9 0.14670 -10.922 10.217 13.232 #CHE
547 15 10 0.00000 -9.921 10.066 12.030 #MOV
548 15 10 0.00000 -9.977 11.281 12.565 #MOV
549 15 10 0.00000 -10.969 10.848 11.794 #MOV
550 15 10 0.00000 -10.787 10.323 13.003 #MOV
551 16 8 -0.58680 3.377 -12.670 2.339 #CHG
552 16 9 0.14670 2.658 -12.260 3.062 #CHE
553 16 9 0.14670 4.395 -12.370 2.624 #CHE
554 16 9 0.14670 3.307 -13.767 2.337 #CHE
555 16 9 0.14670 3.149 -12.286 1.336 #CHE
556 16 10 0.00000 2.845 -12.365 2.875 #MOV
557 16 10 0.00000 4.131 -12.447 2.552 #MOV
558 16 10 0.00000 3.324 -13.482 2.339 #MOV
559 16 10 0.00000 3.207 -12.383 1.597 #MOV
560 17 8 -0.58680 10.837 -6.507 1.849 #CHG
561 17 9 0.14670 9.905 -6.544 2.429 #CHE
562 17 9 0.14670 11.465 -7.370 2.108 #CHE
563 17 9 0.14670 10.601 -6.534 0.776 #CHE
564 17 9 0.14670 11.378 -5.579 2.081 #CHE
565 17 10 0.00000 10.148 -6.534 2.280 #MOV
566 17 10 0.00000 11.301 -7.148 2.041 #MOV
567 17 10 0.00000 10.661 -6.528 1.055 #MOV
568 17 10 0.00000 11.237 -5.820 2.024 #MOV
569 18 8 -0.58680 -2.574 10.028 -9.589 #CHG
570 18 9 0.14670 -1.720 10.719 -9.603 #CHE
571 18 9 0.14670 -3.368 10.439 -8.951 #CHE
572 18 9 0.14670 -2.956 9.899 -10.611 #CHE
573 18 9 0.14670 -2.254 9.055 -9.192 #CHE
574 18 10 0.00000 -1.942 10.539 -9.598 #MOV
575 18 10 0.00000 -3.163 10.334 -9.116 #MOV
576 18 10 0.00000 -2.857 9.934 -10.346 #MOV
577 18 10 0.00000 -2.335 9.309 -9.293 #MOV
578 19 8 -0.58680 -3.655 -8.933 3.393 #CHG
579 19 9 0.14670 -2.951 -9.262 4.170 #CHE
580 19 9 0.14670 -3.951 -7.893 3.582 #CHE
581 19 9 0.14670 -3.171 -9.003 2.408 #CHE
582 19 9 0.14670 -4.546 -9.576 3.409 #CHE
583 19 10 0.00000 -3.134 -9.176 3.969 #MOV
584 19 10 0.00000 -3.874 -8.162 3.534 #MOV
585 19 10 0.00000 -3.295 -8.985 2.664 #MOV
586 19 10 0.00000 -4.315 -9.409 3.408 #MOV
587 20 8 -0.58680 -2.479 -10.017 -9.547 #CHG
588 20 9 0.14670 -1.442 -10.376 -9.511 #CHE
589 20 9 0.14670 -2.489 -8.919 -9.507 #CHE
590 20 9 0.14670 -2.951 -10.354 -10.481 #CHE
591 20 9 0.14670 -3.037 -10.419 -8.689 #CHE
592 20 10 0.00000 -1.711 -10.282 -9.520 #MOV
593 20 10 0.00000 -2.487 -9.203 -9.518 #MOV
594 20 10 0.00000 -2.828 -10.267 -10.239 #MOV
595 20 10 0.00000 -2.890 -10.314 -8.910 #MOV
596 21 8 -0.58680 7.664 12.754 0.137 #CHG
597 21 9 0.14670 8.384 13.394 0.663 #CHE
598 21 9 0.14670 7.358 13.238 -0.799 #CHE
599 21 9 0.14670 8.130 11.784 -0.087 #CHE
600 21 9 0.14670 6.780 12.596 0.771 #CHE
601 21 10 0.00000 8.197 13.229 0.526 #MOV
602 21 10 0.00000 7.438 13.113 -0.558 #MOV
603 21 10 0.00000 8.011 12.036 -0.029 #MOV
604 21 10 0.00000 7.010 12.640 0.608 #MOV
605 22 8 -0.58680 -9.029 4.065 -4.065 #CHG
606 22 9 0.14670 -8.151 3.813 -4.674 #CHE
607 22 9 0.14670 -9.938 3.957 -4.670 #CHE
608 22 9 0.14670 -9.081 3.387 -3.201 #CHE
609 22 9 0.14670 -8.947 5.102 -3.711 #CHE
610 22 10 0.00000 -8.379 3.879 -4.517 #MOV
611 22 10 0.00000 -9.703 3.984 -4.514 #MOV
612 22 10 0.00000 -9.067 3.562 -3.426 #MOV
613 22 10 0.00000 -8.967 4.833 -3.806 #MOV
614 23 8 -0.58680 0.373 2.450 7.847 #CHG
615 23 9 0.14670 0.954 1.828 8.540 #CHE
616 23 9 0.14670 -0.275 3.129 8.417 #CHE
617 23 9 0.14670 1.059 3.037 7.220 #CHE
618 23 9 0.14670 -0.246 1.806 7.206 #CHE
619 23 10 0.00000 0.802 1.988 8.360 #MOV
620 23 10 0.00000 -0.107 2.953 8.270 #MOV
621 23 10 0.00000 0.881 2.885 7.383 #MOV
622 23 10 0.00000 -0.086 1.970 7.375 #MOV
623 24 8 -0.58680 -11.884 7.193 0.005 #CHG
624 24 9 0.14670 -11.495 6.305 0.521 #CHE
625 24 9 0.14670 -11.067 7.694 -0.532 #CHE
626 24 9 0.14670 -12.660 6.889 -0.713 #CHE
627 24 9 0.14670 -12.317 7.885 0.739 #CHE
628 24 10 0.00000 -11.594 6.536 0.386 #MOV
629 24 10 0.00000 -11.277 7.563 -0.393 #MOV
630 24 10 0.00000 -12.457 6.967 -0.526 #MOV
631 24 10 0.00000 -12.202 7.705 0.552 #MOV
632 25 8 -0.58680 10.864 11.590 -11.513 #CHG
633 25 9 0.14670 10.210 12.473 -11.529 #CHE
634 25 9 0.14670 10.402 10.780 -12.093 #CHE
635 25 9 0.14670 11.837 11.849 -11.956 #CHE
636 25 9 0.14670 11.011 11.260 -10.476 #CHE
637 25 10 0.00000 10.379 12.243 -11.525 #MOV
638 25 10 0.00000 10.521 10.991 -11.944 #MOV
639 25 10 0.00000 11.583 11.782 -11.842 #MOV
640 25 10 0.00000 10.970 11.347 -10.744 #MOV
641 26 8 -0.58680 -11.635 1.210 -2.065 #CHG
642 26 9 0.14670 -10.752 0.605 -2.314 #CHE
643 26 9 0.14670 -11.964 0.977 -1.044 #CHE
644 26 9 0.14670 -11.377 2.277 -2.132 #CHE
645 26 9 0.14670 -12.445 0.985 -2.771 #CHE
646 26 10 0.00000 -10.982 0.761 -2.248 #MOV
647 26 10 0.00000 -11.877 1.037 -1.308 #MOV
648 26 10 0.00000 -11.443 1.999 -2.115 #MOV
649 26 10 0.00000 -12.234 1.040 -2.588 #MOV
650 27 8 -0.58680 -8.452 0.354 2.335 #CHG
651 27 9 0.14670 -7.496 -0.104 2.623 #CHE
652 27 9 0.14670 -9.011 -0.337 1.691 #CHE
653 27 9 0.14670 -9.041 0.568 3.240 #CHE
654 27 9 0.14670 -8.264 1.289 1.793 #CHE
655 27 10 0.00000 -7.744 0.014 2.547 #MOV
656 27 10 0.00000 -8.866 -0.160 1.858 #MOV
657 27 10 0.00000 -8.887 0.511 3.005 #MOV
658 27 10 0.00000 -8.310 1.046 1.932 #MOV
659 28 8 -0.58680 10.607 -0.116 1.752 #CHG
660 28 9 0.14670 11.562 -0.655 1.802 #CHE
661 28 9 0.14670 9.879 -0.592 2.422 #CHE
662 28 9 0.14670 10.759 0.929 2.061 #CHE
663 28 9 0.14670 10.225 -0.140 0.722 #CHE
664 28 10 0.00000 11.313 -0.516 1.790 #MOV
665 28 10 0.00000 10.069 -0.470 2.250 #MOV
666 28 10 0.00000 10.720 0.657 1.981 #MOV
667 28 10 0.00000 10.325 -0.136 0.988 #MOV
668 29 8 -0.58680 -11.148 2.969 10.493 #CHG
669 29 9 0.14670 -10.665 2.008 10.274 #CHE
670 29 9 0.14670 -12.227 2.890 10.306 #CHE
671 29 9 0.14670 -10.979 3.232 11.548 #CHE
672 29 9 0.14670 -10.722 3.750 9.850 #CHE
673 29 10 0.00000 -10.792 2.257 10.330 #MOV
674 29 10 0.00000 -11.948 2.909 10.355 #MOV
675 29 10 0.00000 -11.023 3.162 11.274 #MOV
676 29 10 0.00000 -10.832 3.546 10.014 #MOV
677 30 8 -0.58680 4.411 -3.692 -8.985 #CHG
678 30 9 0.14670 5.330 -3.100 -9.097 #CHE
679 30 9 0.14670 4.493 -4.333 -8.097 #CHE
680 30 9 0.14670 3.552 -3.016 -8.871 #CHE
681 30 9 0.14670 4.268 -4.319 -9.876 #CHE
682 30 10 0.00000 5.091 -3.255 -9.067 #MOV
683 30 10 0.00000 4.473 -4.167 -8.326 #MOV
684 30 10 0.00000 3.776 -3.191 -8.900 #MOV
685 30 10 0.00000 4.309 -4.158 -9.645 #MOV
686 31 8 -0.58680 0.536 -9.469 -3.141 #CHG
687 31 9 0.14670 1.365 -8.915 -3.602 #CHE
688 31 9 0.14670 0.429 -10.445 -3.632 #CHE
689 31 9 0.14670 0.746 -9.618 -2.072 #CHE
690 31 9 0.14670 -0.396 -8.898 -3.256 #CHE
691 31 10 0.00000 1.150 -9.060 -3.483 #MOV
692 31 10 0.00000 0.458 -10.193 -3.506 #MOV
693 31 10 0.00000 0.692 -9.579 -2.350 #MOV
694 31 10 0.00000 -0.153 -9.044 -3.229 #MOV
695 32 8 -0.58680 0.484 -9.449 1.606 #CHG
696 32 9 0.14670 0.830 -9.944 0.688 #CHE
697 32 9 0.14670 -0.515 -9.822 1.870 #CHE
698 32 9 0.14670 1.185 -9.665 2.425 #CHE
699 32 9 0.14670 0.437 -8.363 1.441 #CHE
700 32 10 0.00000 0.740 -9.817 0.926 #MOV
701 32 10 0.00000 -0.256 -9.726 1.801 #MOV
702 32 10 0.00000 1.003 -9.610 2.211 #MOV
703 32 10 0.00000 0.448 -8.646 1.481 #MOV
704 33 8 -0.58680 -0.565 1.482 -7.067 #CHG
705 33 9 0.14670 -1.514 1.677 -6.549 #CHE
706 33 9 0.14670 -0.451 0.402 -7.230 #CHE
707 33 9 0.14670 -0.563 2.002 -8.035 #CHE
708 33 9 0.14670 0.269 1.850 -6.452 #CHE
709 33 10 0.00000 -1.268 1.626 -6.684 #MOV
710 33 10 0.00000 -0.481 0.682 -7.188 #MOV
711 33 10 0.00000 -0.565 1.867 -7.783 #MOV
712 33 10 0.00000 0.051 1.754 -6.609 #MOV
713 34 8 -0.58680 1.631 -7.242 12.084 #CHG
714 34 9 0.14670 0.840 -7.611 11.416 #CHE
715 34 9 0.14670 1.209 -7.043 13.078 #CHE
716 34 9 0.14670 2.422 -8.000 12.166 #CHE
717 34 9 0.14670 2.054 -6.314 11.674 #CHE
718 34 10 0.00000 1.045 -7.515 11.590 #MOV
719 34 10 0.00000 1.317 -7.095 12.820 #MOV
720 34 10 0.00000 2.216 -7.804 12.145 #MOV
721 34 10 0.00000 1.941 -6.554 11.779 #MOV
722 35 8 -0.58680 0.081 9.860 0.451 #CHG
723 35 9 0.14670 0.223 10.424 1.384 #CHE
724 35 9 0.14670 -0.061 10.560 -0.383 #CHE
725 35 9 0.14670 0.968 9.239 0.261 #CHE
726 35 9 0.14670 -0.805 9.216 0.543 #CHE
727 35 10 0.00000 0.186 10.278 1.141 #MOV