ITEM: TIMESTEP
0
ITEM: NUMBER OF ATOMS
900
ITEM: BOX BOUNDS pp pp pp
-12.8345 12.8345
-12.8345 12.8345
-12.8345 12.8345
ITEM: ATOMS x y z type mol 
9.767 0.057 -2.316 8 2 
8.803 -0.307 -1.937 9 2 
10.121 0.885 -1.688 9 2 
10.502 -0.76 -2.293 9 2 
9.645 0.409 -3.35 9 2 
9.053 -0.212 -2.035 10 2 
10.029 0.67 -1.85 10 2 
10.311 -0.549 -2.299 10 2 
9.674 0.319 -3.082 10 2 
11.468 12.77 -5.228 8 3 
10.999 -12.397 -4.371 9 3 
11.668 11.72 -4.974 9 3 
10.793 12.815 -6.093 9 3 
12.414 -12.396 -5.475 9 3 
11.121 -12.528 -4.593 10 3 
11.616 11.992 -5.039 10 3 
10.968 12.804 -5.869 10 3 
12.169 -12.527 -5.408 10 3 
-5.068 -1.086 -0.675 8 4 
-4.449 -0.597 0.09 9 4 
-5.861 -1.668 -0.189 9 4 
-5.518 -0.322 -1.323 9 4 
-4.441 -1.756 -1.28 9 4 
-4.61 -0.725 -0.108 10 4 
-5.656 -1.517 -0.314 10 4 
-5.401 -0.519 -1.155 10 4 
-4.602 -1.583 -1.121 10 4 
-1.236 -12.012 6.587 8 5 
-2.008 -12.599 7.104 9 5 
-1.617 -11.002 6.384 9 5 
-0.342 -11.945 7.222 9 5 
-0.976 -12.502 5.639 9 5 
-1.808 -12.446 6.969 10 5 
-1.519 -11.264 6.437 10 5 
-0.574 -11.963 7.058 10 5 
-1.046 -12.376 5.884 10 5 
2.45 -3.009 2.851 8 6 
3.108 -2.663 3.66 9 6 
2.813 -2.62 1.89 9 6 
2.449 -4.107 2.824 9 6 
1.427 -2.647 3.028 9 6 
2.937 -2.751 3.449 10 6 
2.72 -2.72 2.139 10 6 
2.45 -3.822 2.831 10 6 
1.693 -2.738 2.984 10 6 
6.326 -2.032 1.646 8 7 
5.38 -1.807 1.137 9 7 
6.397 -1.439 2.569 9 7 
6.362 -3.102 1.894 9 7 
7.168 -1.781 0.987 9 7 
5.625 -1.864 1.269 10 7 
6.378 -1.593 2.33 10 7 
6.352 -2.825 1.83 10 7 
6.948 -1.843 1.156 10 7 
3.52 9.572 -4.697 8 8 
2.869 9.494 -5.577 9 8 
3.939 10.586 -4.638 9 8 
2.936 9.364 -3.79 9 8 
4.339 8.843 -4.779 9 8 
3.038 9.516 -5.349 10 8 
3.83 10.324 -4.654 10 8 
3.087 9.418 -4.025 10 8 
4.127 9.033 -4.761 10 8 
-3.75 -3.266 -8.431 8 9 
-3.696 -4.138 -9.095 9 9 
-3.933 -3.599 -7.401 9 9 
-2.801 -2.713 -8.474 9 9 
-4.57 -2.608 -8.754 9 9 
-3.71 -3.912 -8.922 10 9 
-3.886 -3.514 -7.667 10 9 
-3.047 -2.857 -8.463 10 9 
-4.359 -2.781 -8.671 10 9 
9.887 -7.578 -10.276 8 10 
8.794 -7.488 -10.224 9 10 
10.212 -7.521 -11.323 9 10 
10.35 -6.761 -9.704 9 10 
10.197 -8.542 -9.851 9 10 
9.078 -7.512 -10.239 10 10 
10.127 -7.535 -11.053 10 10 
10.23 -6.973 -9.853 10 10 
10.114 -8.295 -9.962 10 10 
11.267 -9.032 12.453 8 11 
11.166 -9.658 -12.32 9 11 
10.27 -8.792 12.058 9 11 
11.791 -8.102 12.712 9 11 
11.841 -9.573 11.688 9 11 
11.191 -9.496 -12.554 10 11 
10.527 -8.854 12.161 10 11 
11.655 -8.343 12.646 10 11 
11.691 -9.436 11.887 10 11 
-6.212 10.643 2.195 8 12 
-5.992 9.632 1.824 9 12 
-7.181 10.642 2.712 9 12 
-5.424 10.955 2.894 9 12 
-6.25 11.344 1.349 9 12 
-6.05 9.894 1.921 10 12 
-6.93 10.641 2.578 10 12 
-5.628 10.873 2.713 10 12 
-6.241 11.159 1.566 10 12 
-1.275 0.333 -0.266 8 13 
-0.929 -0.423 0.452 9 13 
-0.729 1.272 -0.103 9 13 
-1.091 -0.024 -1.289 9 13 
-2.351 0.507 -0.127 9 13 
-1.018 -0.226 0.267 10 13 
-0.869 1.028 -0.144 10 13 
-1.138 0.068 -1.024 10 13 
-2.071 0.462 -0.16 10 13 
-1.804 -2.831 -11.879 8 14 
-1.604 -1.754 -11.788 9 14 
-2.353 -3.179 -10.995 9 14 
-2.406 -3.015 -12.78 9 14 
-0.853 -3.375 -11.956 9 14 
-1.656 -2.034 -11.81 10 14 
-2.212 -3.087 -11.223 10 14 
-2.25 -2.967 -12.547 10 14 
-1.099 -3.232 -11.934 10 14 
-10.415 10.629 12.348 8 15 
-9.75 9.868 11.918 9 15 
-9.826 11.508 12.643 9 15 
-11.164 10.924 11.6 9 15 
-10.922 10.217 -12.437 9 15 
-9.921 10.066 12.03 10 15 
-9.977 11.281 12.565 10 15 
-10.969 10.848 11.794 10 15 
-10.787 10.323 -12.666 10 15 
3.377 -12.67 2.339 8 16 
2.658 -12.26 3.062 9 16 
4.395 -12.37 2.624 9 16 
3.307 11.902 2.337 9 16 
3.149 -12.286 1.336 9 16 
2.845 -12.365 2.875 10 16 
4.131 -12.447 2.552 10 16 
3.324 12.187 2.339 10 16 
3.207 -12.383 1.597 10 16 
10.837 -6.507 1.849 8 17 
9.905 -6.544 2.429 9 17 
11.465 -7.37 2.108 9 17 
10.601 -6.534 0.776 9 17 
11.378 -5.579 2.081 9 17 
10.148 -6.534 2.28 10 17 
11.301 -7.148 2.041 10 17 
10.661 -6.528 1.055 10 17 
11.237 -5.82 2.024 10 17 
-2.574 10.028 -9.589 8 18 
-1.72 10.719 -9.603 9 18 
-3.368 10.439 -8.951 9 18 
-2.956 9.899 -10.611 9 18 
-2.254 9.055 -9.192 9 18 
-1.942 10.539 -9.598 10 18 
-3.163 10.334 -9.116 10 18 
-2.857 9.934 -10.346 10 18 
-2.335 9.309 -9.293 10 18 
-3.655 -8.933 3.393 8 19 
-2.951 -9.262 4.17 9 19 
-3.951 -7.893 3.582 9 19 
-3.171 -9.003 2.408 9 19 
-4.546 -9.576 3.409 9 19 
-3.134 -9.176 3.969 10 19 
-3.874 -8.162 3.534 10 19 
-3.295 -8.985 2.664 10 19 
-4.315 -9.409 3.408 10 19 
-2.479 -10.017 -9.547 8 20 
-1.442 -10.376 -9.511 9 20 
-2.489 -8.919 -9.507 9 20 
-2.951 -10.354 -10.481 9 20 
-3.037 -10.419 -8.689 9 20 
-1.711 -10.282 -9.52 10 20 
-2.487 -9.203 -9.518 10 20 
-2.828 -10.267 -10.239 10 20 
-2.89 -10.314 -8.91 10 20 
7.664 12.754 0.137 8 21 
8.384 -12.275 0.663 9 21 
7.358 -12.431 -0.799 9 21 
8.13 11.784 -0.087 9 21 
6.78 12.596 0.771 9 21 
8.197 -12.44 0.526 10 21 
7.438 -12.556 -0.558 10 21 
8.011 12.036 -0.029 10 21 
7.01 12.64 0.608 10 21 
-9.029 4.065 -4.065 8 22 
-8.151 3.813 -4.674 9 22 
-9.938 3.957 -4.67 9 22 
-9.081 3.387 -3.201 9 22 
-8.947 5.102 -3.711 9 22 
-8.379 3.879 -4.517 10 22 
-9.703 3.984 -4.514 10 22 
-9.067 3.562 -3.426 10 22 
-8.967 4.833 -3.806 10 22 
0.373 2.45 7.847 8 23 
0.954 1.828 8.54 9 23 
-0.275 3.129 8.417 9 23 
1.059 3.037 7.22 9 23 
-0.246 1.806 7.206 9 23 
0.802 1.988 8.36 10 23 
-0.107 2.953 8.27 10 23 
0.881 2.885 7.383 10 23 
-0.086 1.97 7.375 10 23 
-11.884 7.193 0.005 8 24 
-11.495 6.305 0.521 9 24 
-11.067 7.694 -0.532 9 24 
-12.66 6.889 -0.713 9 24 
-12.317 7.885 0.739 9 24 
-11.594 6.536 0.386 10 24 
-11.277 7.563 -0.393 10 24 
-12.457 6.967 -0.526 10 24 
-12.202 7.705 0.552 10 24 
10.864 11.59 -11.513 8 25 
10.21 12.473 -11.529 9 25 
10.402 10.78 -12.093 9 25 
11.837 11.849 -11.956 9 25 
11.011 11.26 -10.476 9 25 
10.379 12.243 -11.525 10 25 
10.521 10.991 -11.944 10 25 
11.583 11.782 -11.842 10 25 
10.97 11.347 -10.744 10 25 
-11.635 1.21 -2.065 8 26 
-10.752 0.605 -2.314 9 26 
-11.964 0.977 -1.044 9 26 
-11.377 2.277 -2.132 9 26 
-12.445 0.985 -2.771 9 26 
-10.982 0.761 -2.248 10 26 
-11.877 1.037 -1.308 10 26 
-11.443 1.999 -2.115 10 26 
-12.234 1.04 -2.588 10 26 
-8.452 0.354 2.335 8 27 
-7.496 -0.104 2.623 9 27 
-9.011 -0.337 1.691 9 27 
-9.041 0.568 3.24 9 27 
-8.264 1.289 1.793 9 27 
-7.744 0.014 2.547 10 27 
-8.866 -0.16 1.858 10 27 
-8.887 0.511 3.005 10 27 
-8.31 1.046 1.932 10 27 
10.607 -0.116 1.752 8 28 
11.562 -0.655 1.802 9 28 
9.879 -0.592 2.422 9 28 
10.759 0.929 2.061 9 28 
10.225 -0.14 0.722 9 28 
11.313 -0.516 1.79 10 28 
10.069 -0.47 2.25 10 28 
10.72 0.657 1.981 10 28 
10.325 -0.136 0.988 10 28 
-11.148 2.969 10.493 8 29 
-10.665 2.008 10.274 9 29 
-12.227 2.89 10.306 9 29 
-10.979 3.232 11.548 9 29 
-10.722 3.75 9.85 9 29 
-10.792 2.257 10.33 10 29 
-11.948 2.909 10.355 10 29 
-11.023 3.162 11.274 10 29 
-10.832 3.546 10.014 10 29 
4.411 -3.692 -8.985 8 30 
5.33 -3.1 -9.097 9 30 
4.493 -4.333 -8.097 9 30 
3.552 -3.016 -8.871 9 30 
4.268 -4.319 -9.876 9 30 
5.091 -3.255 -9.067 10 30 
4.473 -4.167 -8.326 10 30 
3.776 -3.191 -8.9 10 30 
4.309 -4.158 -9.645 10 30 
0.536 -9.469 -3.141 8 31 
1.365 -8.915 -3.602 9 31 
0.429 -10.445 -3.632 9 31 
0.746 -9.618 -2.072 9 31 
-0.396 -8.898 -3.256 9 31 
1.15 -9.06 -3.483 10 31 
0.458 -10.193 -3.506 10 31 
0.692 -9.579 -2.35 10 31 
-0.153 -9.044 -3.229 10 31 
0.484 -9.449 1.606 8 32 
0.83 -9.944 0.688 9 32 
-0.515 -9.822 1.87 9 32 
1.185 -9.665 2.425 9 32 
0.437 -8.363 1.441 9 32 
0.74 -9.817 0.926 10 32 
-0.256 -9.726 1.801 10 32 
1.003 -9.61 2.211 10 32 
0.448 -8.646 1.481 10 32 
-0.565 1.482 -7.067 8 33 
-1.514 1.677 -6.549 9 33 
-0.451 0.402 -7.23 9 33 
-0.563 2.002 -8.035 9 33 
0.269 1.85 -6.452 9 33 
-1.268 1.626 -6.684 10 33 
-0.481 0.682 -7.188 10 33 
-0.565 1.867 -7.783 10 33 
0.051 1.754 -6.609 10 33 
1.631 -7.242 12.084 8 34 
0.84 -7.611 11.416 9 34 
1.209 -7.043 -12.591 9 34 
2.422 -8 12.166 9 34 
2.054 -6.314 11.674 9 34 
1.045 -7.515 11.59 10 34 
1.317 -7.095 12.82 10 34 
2.216 -7.804 12.145 10 34 
1.941 -6.554 11.779 10 34 
0.081 9.86 0.451 8 35 
0.223 10.424 1.384 9 35 
-0.061 10.56 -0.383 9 35 
0.968 9.239 0.261 9 35 
-0.805 9.216 0.543 9 35 
0.186 10.278 1.141 10 35 
-0.024 10.38 -0.167 10 35 
0.738 9.401 0.311 10 35 
-0.576 9.386 0.521 10 35 
10.969 -11.755 3.568 8 36 
10.144 -11.377 4.188 9 36 
11.493 -12.558 4.103 9 36 
10.567 -12.146 2.623 9 36 
11.673 -10.937 3.356 9 36 
10.359 -11.476 4.028 10 36 
11.357 -12.35 3.965 10 36 
10.67 -12.044 2.869 10 36 
11.489 -11.148 3.414 10 36 
-1.819 -3.182 -1.631 8 37 
-0.925 -3.634 -1.179 9 37 
-2.254 -2.453 -0.934 9 37 
-1.54 -2.676 -2.565 9 37 
-2.557 -3.968 -1.847 9 37 
-1.157 -3.516 -1.295 10 37 
-2.141 -2.642 -1.114 10 37 
-1.611 -2.807 -2.322 10 37 
-2.365 -3.765 -1.788 10 37 
9.022 -8.683 8.678 8 38 
8.133 -8.104 8.963 9 38 
9.928 -8.132 8.966 9 38 
9.006 -9.655 9.191 9 38 
9.022 -8.843 7.59 9 38 
8.365 -8.254 8.89 10 38 
9.693 -8.274 8.892 10 38 
9.009 -9.402 9.059 10 38 
9.021 -8.799 7.872 10 38 
-11.88 10.816 0.52 8 39 
-11.427 10.72 -0.476 9 39 
-11.238 10.327 1.265 9 39 
-11.987 11.88 0.772 9 39 
12.8 10.339 0.52 9 39 
-11.543 10.744 -0.217 10 39 
-11.403 10.453 1.071 10 39 
-11.959 11.604 0.705 10 39 
-12.612 10.46 0.518 10 39 
3.546 -3.165 -3.01 8 40 
4.482 -2.728 -3.38 9 40 
3.547 -4.248 -3.195 9 40 
3.456 -2.979 -1.931 9 40 
2.695 -2.707 -3.532 9 40 
4.24 -2.842 -3.285 10 40 
3.548 -3.968 -3.148 10 40 
3.48 -3.027 -2.211 10 40 
2.917 -2.825 -3.4 10 40 
-10.037 -9.073 -10.786 8 41 
-9.567 -9.865 -11.383 9 41 
-11.069 -9.36 -10.54 9 41 
-9.467 -8.928 -9.857 9 41 
-10.046 -8.136 -11.359 9 41 
-9.69 -9.66 -11.228 10 41 
-10.801 -9.287 -10.604 10 41 
-9.614 -8.967 -10.099 10 41 
-10.044 -8.38 -11.213 10 41 
-3.186 1.149 9.209 8 42 
-3.07 0.073 9.019 9 42 
-4.254 1.404 9.236 9 42 
-2.726 1.401 10.174 9 42 
-2.694 1.719 8.409 9 42 
-3.102 0.352 9.068 10 42 
-3.978 1.336 9.229 10 42 
-2.845 1.334 9.924 10 42 
-2.823 1.568 8.614 10 42 
-10.923 7.886 -9.828 8 43 
-10.055 7.372 -9.394 9 43 
-11.18 8.758 -9.21 9 43 
-10.679 8.219 -10.846 9 43 
-11.778 7.199 -9.862 9 43 
-10.28 7.506 -9.505 10 43 
-11.112 8.532 -9.369 10 43 
-10.741 8.132 -10.581 10 43 
-11.556 7.376 -9.85 10 43 
-3.671 -12.276 4.11 8 44 
-3.401 -12.742 3.153 9 44 
-2.877 -11.582 4.418 9 44 
-4.614 -11.724 3.995 9 44 
-3.793 12.616 4.876 9 44 
-3.47 -12.62 3.401 10 44 
-3.081 -11.762 4.337 10 44 
-4.369 -11.867 4.023 10 44 
-3.759 12.815 4.676 10 44 
-10.191 -3.233 -4.263 8 45 
-10.541 -2.376 -3.671 9 45 
-9.109 -3.145 -4.432 9 45 
-10.402 -4.163 -3.719 9 45 
-10.711 -3.249 -5.23 9 45 
-10.449 -2.598 -3.825 10 45 
-9.389 -3.166 -4.387 10 45 
-10.347 -3.921 -3.859 10 45 
-10.577 -3.241 -4.98 10 45 
3.903 -3.739 -12.787 8 46 
4.715 -3.775 12.143 9 46 
3.544 -4.759 -12.586 9 46 
4.276 -3.293 -11.856 9 46 
3.075 -3.131 12.49 9 46 
4.503 -3.767 12.334 10 46 
3.637 -4.496 -12.639 10 46 
4.18 -3.409 -12.097 10 46 
3.29 -3.29 12.589 10 46 
-10.443 -12.136 -8.509 8 47 
-11.012 -11.836 -9.399 9 47 
-10.013 12.534 -8.668 9 47 
-9.636 -11.414 -8.33 9 47 
-11.112 -12.162 -7.637 9 47 
-10.864 -11.916 -9.168 10 47 
-10.124 12.792 -8.628 10 47 
-9.844 -11.601 -8.377 10 47 
-10.941 -12.156 -7.864 10 47 
-2.208 -5.454 10.683 8 48 
-1.247 -5.983 10.73 9 48 
-2.188 -4.729 9.857 9 48 
-3.016 -6.179 10.515 9 48 
-2.383 -4.924 11.63 9 48 
-1.496 -5.844 10.717 10 48 
-2.193 -4.916 10.07 10 48 
-2.807 -5.992 10.557 10 48 
-2.335 -5.061 11.385 10 48 
-11.188 10.181 7.882 8 49 
-10.336 10.804 7.577 9 49 
-11.925 10.801 8.412 9 49 
-11.656 9.738 6.991 9 49 
-10.838 9.38 8.548 9 49 
-10.558 10.642 7.657 10 49 
-11.734 10.641 8.275 10 49 
-11.534 9.853 7.222 10 49 
-10.927 9.59 8.377 10 49 
1.57 6.416 2.001 8 50 
1.081 5.452 1.804 9 50 
1.128 7.19 1.36 9 50 
1.428 6.689 3.056 9 50 
2.644 6.334 1.785 9 50 
1.208 5.704 1.854 10 50 
1.241 6.99 1.525 10 50 
1.464 6.618 2.782 10 50 
2.366 6.353 1.839 10 50 
-10.898 -1.72 -8.491 8 51 
-11.441 -1.416 -7.585 9 51 
-11.591 -1.746 -9.342 9 51 
-10.095 -0.997 -8.694 9 51 
-10.464 -2.718 -8.343 9 51 
-11.301 -1.496 -7.821 10 51 
-11.413 -1.738 -9.122 10 51 
-10.304 -1.184 -8.641 10 51 
-10.579 -2.459 -8.38 10 51 
-10.362 -5.084 0.636 8 52 
-10.211 -4.045 0.958 9 52 
-11.356 -5.426 0.956 9 52 
-10.291 -5.141 -0.459 9 52 
-9.593 -5.725 1.088 9 52 
-10.252 -4.314 0.875 10 52 
-11.1 -5.337 0.873 10 52 
-10.309 -5.126 -0.175 10 52 
-9.792 -5.557 0.974 10 52 
2.642 -10.552 10.653 8 53 
2.645 -9.579 10.145 9 53 
3.661 -10.96 10.67 9 53 
2.281 -10.425 11.683 9 53 
1.979 -11.245 10.116 9 53 
2.644 -9.832 10.276 10 53 
3.398 -10.854 10.666 10 53 
2.375 -10.457 11.416 10 53 
2.152 -11.065 10.252 10 53 
11.595 -1.783 7.128 8 54 
11.201 -0.883 7.62 9 54 
10.989 -2.653 7.414 9 54 
11.555 -1.65 6.038 9 54 
12.636 -1.944 7.438 9 54 
11.302 -1.118 7.494 10 54 
11.144 -2.428 7.34 10 54 
11.564 -1.684 6.32 10 54 
12.366 -1.902 7.361 10 54 
-4.381 -0.382 -11.417 8 55 
-4.777 -0.46 -12.439 9 55 
-3.301 -0.182 -11.456 9 55 
-4.886 0.44 -10.891 9 55 
-4.558 -1.325 -10.881 9 55 
-4.673 -0.44 -12.174 10 55 
-3.581 -0.233 -11.448 10 55 
-4.755 0.227 -11.028 10 55 
-4.511 -1.082 -11.023 10 55 
-11.571 -11.492 12.323 8 56 
-11.742 -10.49 12.741 9 56 
-10.596 -11.869 12.66 9 56 
-12.364 -12.171 12.665 9 56 
-11.583 -11.439 11.225 9 56 
-11.697 -10.75 12.633 10 56 
-10.848 -11.77 12.574 10 56 
-12.159 -11.994 12.577 10 56 
-11.578 -11.45 11.51 10 56 
4.023 9.242 3.016 8 57 
3.61 8.275 2.697 9 57 
4.247 9.855 2.131 9 57 
3.289 9.763 3.646 9 57 
4.946 9.076 3.589 9 57 
3.717 8.527 2.779 10 57 
4.188 9.695 2.36 10 57 
3.479 9.628 3.482 10 57 
4.707 9.117 3.438 10 57 
7.674 -10.974 11.688 8 58 
7.178 -11.865 11.279 9 58 
8.134 -11.221 12.655 9 58 
8.451 -10.635 10.989 9 58 
6.934 -10.173 11.83 9 58 
7.307 -11.633 11.386 10 58 
8.015 -11.158 12.404 10 58 
8.25 -10.723 11.17 10 58 
7.125 -10.383 11.794 10 58 
11.558 4.24 12.524 8 59 
12.225 4.64 11.751 9 59 
11.663 3.148 12.572 9 59 
11.823 4.675 -12.171 9 59 
10.518 4.496 12.281 9 59 
12.053 4.535 11.951 10 59 
11.636 3.43 12.559 10 59 
11.756 4.563 -12.423 10 59 
10.787 4.43 12.341 10 59 
-11.75 -2.141 3.427 8 60 
-12.523 -2.231 4.201 9 60 
-11.167 -3.071 3.38 9 60 
-12.226 -1.959 2.454 9 60 
-11.082 -1.303 3.67 9 60 
-12.322 -2.209 4.001 10 60 
-11.318 -2.831 3.393 10 60 
-12.104 -2.006 2.706 10 60 
-11.255 -1.521 3.61 10 60 
-0.812 -10.136 -12.72 8 61 
-0.499 -10.916 -12.014 9 61 
-0.389 -10.348 11.958 9 61 
-1.908 -10.122 -12.786 9 61 
-0.453 -9.159 -12.371 9 61 
-0.578 -10.715 -12.198 10 61 
-0.498 -10.294 12.214 10 61 
-1.625 -10.127 -12.768 10 61 
-0.543 -9.413 -12.46 10 61 
-1.675 -12.815 1.096 8 62 
-2.218 12.136 0.469 9 62 
-0.671 -12.65 0.682 9 62 
-2.221 -11.862 1.119 9 62 
-1.588 12.458 2.117 9 62 
-2.076 12.321 0.631 10 62 
-0.93 -12.694 0.788 10 62 
-2.08 -12.109 1.112 10 62 
-1.61 12.558 1.852 10 62 
-7.709 10.531 -1.676 8 63 
-8.175 10.665 -0.692 9 63 
-8.436 10.086 -2.369 9 63 
-7.385 11.506 -2.064 9 63 
-6.839 9.867 -1.583 9 63 
-8.056 10.629 -0.947 10 63 
-8.249 10.2 -2.189 10 63 
-7.47 11.255 -1.962 10 63 
-7.065 10.037 -1.605 10 63 
6.209 2.264 10.744 8 64 
6.644 1.267 10.886 9 64 
6.101 2.76 11.719 9 64 
6.869 2.863 10.102 9 64 
5.223 2.172 10.27 9 64 
6.531 1.525 10.851 10 64 
6.129 2.631 11.468 10 64 
6.699 2.708 10.268 10 64 
5.477 2.193 10.394 10 64 
10.839 9.938 3.16 8 65 
10.834 8.904 2.792 9 65 
10.205 10.014 4.054 9 65 
11.868 10.229 3.416 9 65 
10.453 10.609 2.38 9 65 
10.835 9.173 2.888 10 65 
10.369 9.994 3.823 10 65 
11.601 10.154 3.35 10 65 
10.551 10.433 2.581 10 65 
-11.493 -12.524 5.806 8 66 
-11.797 12.184 5.368 9 66 
-11.894 -11.7 5.199 9 66 
-11.886 -12.448 6.83 9 66 
-10.397 -12.461 5.83 9 66 
-11.719 12.434 5.481 10 66 
-11.79 -11.914 5.356 10 66 
-11.785 -12.469 6.565 10 66 
-10.68 -12.479 5.82 10 66 
1.299 -5.037 -10.127 8 67 
1.187 -5.391 -11.161 9 67 
1.513 -3.959 -10.129 9 67 
0.369 -5.224 -9.573 9 67 
2.127 -5.573 -9.643 9 67 
1.216 -5.298 -10.893 10 67 
1.458 -4.238 -10.129 10 67 
0.609 -5.176 -9.717 10 67 
1.915 -5.434 -9.771 10 67 
2.553 -10.038 5.433 8 68 
2.086 -9.276 6.071 9 68 
2.524 -11.012 5.941 9 68 
2.004 -10.106 4.482 9 68 
3.597 -9.762 5.232 9 68 
2.207 -9.475 5.906 10 68 
2.531 -10.759 5.81 10 68 
2.145 -10.087 4.729 10 68 
3.327 -9.832 5.287 10 68 
10.269 10.417 7.296 8 69 
10.929 11.062 6.701 9 69 
9.577 11.039 7.879 9 69 
9.696 9.761 6.625 9 69 
10.873 9.803 7.979 9 69 
10.758 10.895 6.856 10 69 
9.755 10.879 7.728 10 69 
9.845 9.932 6.798 10 69 
10.719 9.965 7.802 10 69 
7.041 2.309 -10.768 8 70 
6.245 2.204 -11.516 9 70 
7.833 2.958 -11.164 9 70 
6.626 2.756 -9.853 9 70 
7.459 1.32 -10.535 9 70 
6.452 2.232 -11.323 10 70 
7.628 2.791 -11.062 10 70 
6.732 2.641 -10.091 10 70 
7.351 1.576 -10.598 10 70 
-9.443 2.967 -10.274 8 71 
-9.602 2.201 -11.045 9 71 
-8.367 3.093 -10.099 9 71 
-9.873 3.92 -10.612 9 71 
-9.932 2.655 -9.341 9 71 
-9.559 2.399 -10.845 10 71 
-8.644 3.06 -10.145 10 71 
-9.761 3.673 -10.526 10 71 
-9.805 2.733 -9.583 10 71 
9.264 -10.339 -2.605 8 72 
9.369 -10.959 -1.705 9 72 
8.216 -10.031 -2.718 9 72 
9.899 -9.447 -2.51 9 72 
9.574 -10.916 -3.487 9 72 
9.34 -10.798 -1.938 10 72 
8.487 -10.111 -2.688 10 72 
9.734 -9.678 -2.533 10 72 
9.492 -10.769 -3.257 10 72 
5.026 -10.655 -1.639 8 73 
4.327 -10.086 -1.011 9 73 
4.927 -10.332 -2.684 9 73 
6.055 -10.477 -1.297 9 73 
4.796 -11.728 -1.565 9 73 
4.508 -10.233 -1.175 10 73 
4.953 -10.414 -2.414 10 73 
5.788 -10.523 -1.385 10 73 
4.853 -11.449 -1.585 10 73 
-7.899 -9.776 10.331 8 74 
-8.356 -10.714 9.988 9 74 
-8.469 -8.924 9.936 9 74 
-7.908 -9.745 11.43 9 74 
-6.862 -9.719 9.972 9 74 
-8.238 -10.47 10.077 10 74 
-8.323 -9.144 10.038 10 74 
-7.907 -9.753 11.145 10 74 
-7.132 -9.735 10.062 10 74 
-12.188 1.19 5.386 8 75 
-12.118 2.203 4.969 9 75 
-11.337 1.01 6.058 9 75 
12.542 1.091 5.95 9 75 
-12.172 0.454 4.571 9 75 
-12.134 1.939 5.077 10 75 
-11.557 1.058 5.885 10 75 
12.786 1.118 5.804 10 75 
-12.173 0.646 4.78 10 75 
-4.597 9.601 -3.575 8 76 
-3.975 8.73 -3.819 9 76 
-4.264 10.036 -2.623 9 76 
-4.503 10.352 -4.372 9 76 
-5.646 9.289 -3.487 9 76 
-4.136 8.956 -3.755 10 76 
-4.349 9.922 -2.869 10 76 
-4.527 10.157 -4.166 10 76 
-5.373 9.368 -3.508 10 76 
-2.138 -1.866 3.602 8 77 
-2.495 -2.369 4.509 9 77 
-1.342 -1.156 3.864 9 77 
-1.742 -2.613 2.9 9 77 
-2.969 -1.325 3.13 9 77 
-2.402 -2.238 4.274 10 77 
-1.548 -1.339 3.798 10 77 
-1.845 -2.421 3.083 10 77 
-2.754 -1.464 3.255 10 77 
-7.822 10.443 -9.94 8 78 
-7.495 11.484 -9.811 9 78 
-7.809 10.183 -11.007 9 78 
-7.141 9.775 -9.392 9 78 
-8.842 10.326 -9.547 9 78 
-7.581 11.213 -9.845 10 78 
-7.812 10.251 -10.73 10 78 
-7.316 9.949 -9.534 10 78 
-8.578 10.359 -9.649 10 78 
-2.384 6.956 11.186 8 79 
-3.041 7.521 10.512 9 79 
-2.061 7.604 12.013 9 79 
-2.93 6.093 11.59 9 79 
-1.503 6.605 10.632 9 79 
-2.87 7.376 10.687 10 79 
-2.146 7.437 11.799 10 79 
-2.789 6.317 11.485 10 79 
-1.731 6.699 10.774 10 79 
6.111 11.586 -10.485 8 80 
5.209 12.203 -10.369 9 80 
6.979 12.127 -10.085 9 80 
5.982 10.644 -9.934 9 80 
6.273 11.369 -11.549 9 80 
5.444 12.044 -10.399 10 80 
6.754 11.987 -10.187 10 80 
6.014 10.889 -10.076 10 80 
6.23 11.428 -11.273 10 80 
11.022 -0.038 -12.779 8 81 
11.872 0.355 -12.204 9 81 
11.394 -0.592 12.017 9 81 
10.431 -0.712 -12.143 9 81 
10.39 0.794 12.553 9 81 
11.652 0.253 -12.354 10 81 
11.299 -0.449 12.244 10 81 
10.585 -0.537 -12.307 10 81 
10.556 0.58 12.64 10 81 
-1.348 -1.714 7.577 8 82 
-1.984 -2.601 7.452 9 82 
-0.485 -1.783 6.901 9 82 
-1.929 -0.812 7.339 9 82 
-0.995 -1.659 8.616 9 82 
-1.818 -2.371 7.484 10 82 
-0.709 -1.765 7.075 10 82 
-1.779 -1.046 7.401 10 82 
-1.087 -1.676 8.347 10 82 
-0.248 9.975 5.238 8 83 
0.669 9.388 5.38 9 83 
-0.202 10.501 4.275 9 83 
-1.117 9.304 5.247 9 83 
-0.344 10.709 6.05 9 83 
0.431 9.541 5.343 10 83 
-0.212 10.365 4.524 10 83 
-0.891 9.477 5.244 10 83 
-0.315 10.519 5.841 10 83 
2.093 -0.661 -0.271 8 84 
2.37 -0.667 0.791 9 84 
1.517 -1.565 -0.506 9 84 
1.482 0.228 -0.485 9 84 
3.002 -0.636 -0.889 9 84 
2.298 -0.666 0.515 10 84 
1.665 -1.331 -0.444 10 84 
1.64 -0.002 -0.428 10 84 
2.768 -0.644 -0.727 10 84 
9.755 2.493 9.588 8 85 
8.727 2.598 9.219 9 85 
10.146 3.479 9.873 9 85 
9.764 1.83 10.465 9 85 
10.388 2.064 8.8 9 85 
8.994 2.571 9.315 10 85 
10.043 3.225 9.8 10 85 
9.76 2.002 10.238 10 85 
10.222 2.176 9.002 10 85 
-11.058 -8.156 9.518 8 86 
-10.603 -8.949 8.908 9 86 
-11.133 -8.492 10.561 9 86 
-10.434 -7.253 9.47 9 86 
-12.061 -7.928 9.134 9 86 
-10.721 -8.744 9.068 10 86 
-11.113 -8.407 10.291 10 86 
-10.594 -7.488 9.482 10 86 
-11.802 -7.99 9.233 10 86 
-1.727 -6.559 -11.282 8 87 
-0.828 -7.155 -11.073 9 87 
-2.446 -7.167 -11.849 9 87 
-2.184 -6.241 -10.334 9 87 
-1.453 -5.674 -11.871 9 87 
-1.062 -7.001 -11.128 10 87 
-2.26 -7.01 -11.702 10 87 
-2.065 -6.325 -10.579 10 87 
-1.522 -5.905 -11.72 10 87 
0.597 6.388 -11.232 8 88 
0.833 5.768 -12.108 9 88 
0.089 5.776 -10.475 9 88 
1.528 6.794 -10.811 9 88 
-0.058 7.216 -11.534 9 88 
0.772 5.929 -11.88 10 88 
0.222 5.934 -10.671 10 88 
1.288 6.688 -10.921 10 88 
0.11 7 -11.458 10 88 
-10.751 -10.979 -4.193 8 89 
-10.516 -11.39 -5.183 9 89 
-11.803 -11.182 -3.951 9 89 
-10.105 -11.452 -3.438 9 89 
-10.578 -9.895 -4.194 9 89 
-10.578 -11.283 -4.926 10 89 
-11.531 -11.13 -4.014 10 89 
-10.272 -11.33 -3.635 10 89 
-10.624 -10.175 -4.196 10 89 
3.296 3.031 3.14 8 90 
3.473 4.115 3.124 9 90 
2.513 2.775 2.413 9 90 
4.225 2.506 2.878 9 90 
2.974 2.726 4.145 9 90 
3.425 3.833 3.127 10 90 
2.716 2.843 2.601 10 90 
3.985 2.643 2.945 10 90 
3.056 2.808 3.885 10 90 
9.626 -4.02 3.734 8 91 
10.273 -3.628 2.939 9 91 
9.252 -3.189 4.346 9 91 
8.777 -4.556 3.285 9 91 
10.199 -4.711 4.367 9 91 
10.105 -3.729 3.145 10 91 
9.348 -3.403 4.187 10 91 
8.998 -4.416 3.4 10 91 
10.053 -4.53 4.203 10 91 
2.588 -9.053 -10.526 8 92 
2.847 -9.313 -11.561 9 92 
2.062 -8.089 -10.51 9 92 
1.937 -9.833 -10.106 9 92 
3.505 -8.979 -9.926 9 92 
2.779 -9.244 -11.293 10 92 
2.198 -8.338 -10.515 10 92 
2.105 -9.631 -10.216 10 92 
3.269 -8.997 -10.084 10 92 
12.331 -11.542 -0.6 8 93 
11.593 -12.332 -0.406 9 93 
12.065 -11.007 -1.521 9 93 
12.341 -10.837 0.243 9 93 
-12.341 -11.99 -0.713 9 93 
11.785 -12.127 -0.458 10 93 
12.133 -11.146 -1.283 10 93 
12.338 -11.02 0.025 10 93 
-12.601 -11.877 -0.685 10 93 
3.237 3.834 -9.195 8 94 
3.306 2.827 -8.761 9 94 
3.762 4.55 -8.549 9 94 
3.701 3.834 -10.192 9 94 
2.182 4.126 -9.282 9 94 
3.288 3.089 -8.873 10 94 
3.627 4.364 -8.715 10 94 
3.58 3.833 -9.933 10 94 
2.455 4.048 -9.257 10 94 
-0.714 0.865 12.055 8 95 
-1.622 1.133 12.611 9 95 
-0.945 0.803 10.982 9 95 
0.054 1.634 12.218 9 95 
-0.34 -0.106 12.406 9 95 
-1.387 1.063 12.465 10 95 
-0.886 0.819 11.26 10 95 
-0.145 1.435 12.175 10 95 
-0.44 0.144 12.315 10 95 
1.741 3.612 -1.87 8 96 
1.198 4.325 -1.236 9 96 
1.866 2.663 -1.331 9 96 
1.172 3.435 -2.793 9 96 
2.729 4.022 -2.122 9 96 
1.339 4.139 -1.4 10 96 
1.833 2.909 -1.469 10 96 
1.319 3.481 -2.553 10 96 
2.473 3.917 -2.053 10 96 
-0.968 11.67 -5.327 8 97 
-0.352 12.387 -5.887 9 97 
-1.758 12.207 -4.787 9 97 
-1.423 10.955 -6.028 9 97 
-0.338 11.127 -4.609 9 97 
-0.513 12.202 -5.741 10 97 
-1.554 12.068 -4.928 10 97 
-1.304 11.141 -5.847 10 97 
-0.5 11.27 -4.795 10 97 
10.832 -3.568 -0.451 8 98 
9.912 -4.107 -0.192 9 98 
10.613 -2.815 -1.22 9 98 
11.228 -3.07 0.446 9 98 
11.578 -4.276 -0.835 9 98 
10.15 -3.967 -0.26 10 98 
10.668 -3.009 -1.021 10 98 
11.125 -3.199 0.214 10 98 
11.382 -4.094 -0.737 10 98 
-10.613 10.512 -6.296 8 99 
-10.182 11.521 -6.297 9 99 
-11.709 10.58 -6.314 9 99 
-10.267 9.966 -7.186 9 99 
-10.295 9.976 -5.392 9 99 
-10.295 11.26 -6.296 10 99 
-11.426 10.564 -6.309 10 99 
-10.356 10.109 -6.955 10 99 
-10.378 10.118 -5.625 10 99 
-1.668 10.456 12.286 8 100 
-1.236 9.949 11.413 9 100 
-2.656 10.029 12.507 9 100 
-1.007 10.316 -12.515 9 100 
-1.772 11.528 12.074 9 100 
-1.349 10.08 11.639 10 100 
-2.401 10.139 12.449 10 100 
-1.178 10.352 -12.741 10 100 
-1.746 11.249 12.126 10 100 
11.894 4.664 2.21 8 101 
12.223 5.264 3.069 9 101 
11.053 4.024 2.51 9 101 
11.572 5.333 1.399 9 101 
12.724 4.037 1.86 9 101 
12.137 5.107 2.847 10 101 
11.27 4.189 2.434 10 101 
11.656 5.161 1.61 10 101 
12.51 4.199 1.954 10 101 
ITEM: TIMESTEP
1
ITEM: NUMBER OF ATOMS
900
ITEM: BOX BOUNDS pp pp pp
-12.8345 12.8345
-12.8345 12.8345
-12.8345 12.8345
ITEM: ATOMS x y z type mol 
9.77006 0.057359 -2.31395 8 2 
8.80301 -0.307054 -1.9432 9 2 
10.1266 0.873972 -1.67263 9 2 
10.5006 -0.763845 -2.30104 9 2 
9.653 0.425406 -3.34292 9 2 
9.0538 -0.211951 -2.03905 10 2 
10.034 0.661914 -1.83809 10 2 
10.3108 -0.551752 -2.30444 10 2 
9.68072 0.331261 -3.07621 10 2 
11.4701 12.7725 -5.23748 8 3 
10.9851 -12.4008 -4.38572 9 3 
11.6622 11.7197 -4.98881 9 3 
10.8128 12.8269 -6.11551 9 3 
12.4221 -12.394 -5.46085 9 3 
11.1112 -12.5302 -4.60636 10 3 
11.6122 11.9924 -5.05243 10 3 
10.9832 12.8135 -5.88813 10 3 
12.1755 -12.5249 -5.39997 10 3 
-5.06768 -1.0848 -0.668927 8 4 
-4.45621 -0.589086 0.0978083 9 4 
-5.85748 -1.67304 -0.185237 9 4 
-5.52176 -0.325879 -1.32003 9 4 
-4.43225 -1.75018 -1.27023 9 4 
-4.61525 -0.718831 -0.100642 10 4 
-5.65331 -1.52043 -0.30964 10 4 
-5.40371 -0.52156 -1.15123 10 4 
-4.59544 -1.57836 -1.11218 10 4 
-1.23476 -12.0186 6.58471 8 5 
-2.00248 -12.6112 7.10162 9 5 
-1.61736 -11.0064 6.39603 9 5 
-0.335509 -11.9586 7.21296 9 5 
-0.982695 -12.4981 5.62924 9 5 
-1.8036 -12.4568 6.96665 10 5 
-1.51894 -11.269 6.44532 10 5 
-0.568866 -11.9748 7.0507 10 5 
-1.05065 -12.3748 5.87619 10 5 
2.43944 -3.00807 2.85283 8 6 
3.09087 -2.66345 3.66771 9 6 
2.8088 -2.61543 1.89574 9 6 
2.44057 -4.10598 2.8224 9 6 
1.41453 -2.64841 3.02343 9 6 
2.92158 -2.75109 3.45519 10 6 
2.71415 -2.71637 2.14373 10 6 
2.44102 -3.821 2.8303 10 6 
1.681 -2.7388 2.98111 10 6 
6.32559 -2.02986 1.64624 8 7 
5.37906 -1.79362 1.14334 9 7 
6.40465 -1.44577 2.57425 9 7 
6.35508 -3.10229 1.88441 9 7 
7.16656 -1.77882 0.985947 9 7 
5.62421 -1.85354 1.27377 10 7 
6.38356 -1.59746 2.33395 10 7 
6.34676 -2.82466 1.82296 10 7 
6.94684 -1.8408 1.15532 10 7 
3.52346 9.56418 -4.7056 8 8 
2.87709 9.48484 -5.58888 9 8 
3.93552 10.5807 -4.64131 9 8 
2.93663 9.34935 -3.80202 9 8 
4.3476 8.84084 -4.78617 9 8 
3.04488 9.50719 -5.36002 10 8 
3.82832 10.318 -4.65868 10 8 
3.08837 9.40512 -4.03613 10 8 
4.13428 9.02938 -4.76853 10 8 
-3.75286 -3.2648 -8.43184 8 9 
-3.69639 -4.14445 -9.08546 9 9 
-3.93327 -3.58618 -7.3977 9 9 
-2.80604 -2.70875 -8.4827 9 9 
-4.57578 -2.61382 -8.76158 9 9 
-3.71103 -3.91646 -8.91515 10 9 
-3.88693 -3.50418 -7.66476 10 9 
-3.05147 -2.85354 -8.46966 10 9 
-4.36402 -2.78502 -8.6768 10 9 
9.88588 -7.57921 -10.2746 8 10 
8.79299 -7.48455 -10.229 9 10 
10.2171 -7.52464 -11.3198 9 10 
10.349 -6.76359 -9.70077 9 10 
10.1894 -8.54408 -9.84688 9 10 
9.07697 -7.50977 -10.2423 10 10 
10.1305 -7.53801 -11.0503 10 10 
10.229 -6.97523 -9.85024 10 10 
10.1081 -8.29684 -9.9586 10 10 
11.2632 -9.03382 12.4528 8 11 
11.1496 -9.66365 -12.3243 9 11 
10.2716 -8.78866 12.0473 9 11 
11.7871 -8.10678 12.7223 9 11 
11.8443 -9.57314 11.6921 9 11 
11.1779 -9.50064 -12.5573 10 11 
10.5272 -8.852 12.1531 10 11 
11.6511 -8.34702 12.6536 10 11 
11.6924 -9.43658 11.89 10 11 
-6.21171 10.6375 2.18979 8 12 
-5.97961 9.62792 1.82233 9 12 
-7.18481 10.6286 2.69895 9 12 
-5.43223 10.9578 2.89457 9 12 
-6.2492 11.3367 1.34229 9 12 
-6.04075 9.88954 1.9184 10 12 
-6.93273 10.6297 2.56699 10 12 
-5.63401 10.8736 2.71208 10 12 
-6.24028 11.1522 1.55968 10 12 
-1.26753 0.333259 -0.260733 8 13 
-0.910666 -0.422516 0.452168 9 13 
-0.729783 1.27676 -0.0962865 9 13 
-1.08525 -0.0174501 -1.28621 9 13 
-2.34444 0.496258 -0.115599 9 13 
-1.00249 -0.225572 0.268491 10 13 
-0.867632 1.0316 -0.137672 10 13 
-1.1318 0.0729267 -1.02058 10 13 
-2.06419 0.454107 -0.150194 10 13 
-1.80682 -2.83287 -11.8819 8 14 
-1.61828 -1.75308 -11.7999 9 14 
-2.34954 -3.17984 -10.9936 9 14 
-2.40929 -3.03047 -12.7797 9 14 
-0.850181 -3.36711 -11.9573 9 14 
-1.6673 -2.03379 -11.8195 10 14 
-2.21019 -3.08811 -11.2227 10 14 
-2.25317 -2.97895 -12.5475 10 14 
-1.09766 -3.22662 -11.9357 10 14 
-10.4131 10.6248 12.344 8 15 
-9.74301 9.86507 11.9196 9 15 
-9.82861 11.5061 12.6412 9 15 
-11.1581 10.9162 11.5907 9 15 
-10.9245 10.2128 -12.4436 9 15 
-9.91532 10.0628 12.0302 10 15 
-9.97842 11.2785 12.5626 10 15 
-10.9641 10.8412 11.786 10 15 
-10.7883 10.3188 -12.6719 10 15 
3.37492 -12.6661 2.33446 8 16 
2.65608 -12.2391 3.04768 9 16 
4.39537 -12.385 2.62972 9 16 
3.28339 11.9074 2.33602 9 16 
3.16575 -12.2819 1.32744 9 16 
2.84306 -12.3485 2.86322 10 16 
4.13073 -12.4571 2.55505 10 16 
3.30597 12.1921 2.33708 10 16 
3.2189 -12.379 1.58946 10 16 
10.8347 -6.50348 1.8486 8 17 
9.90685 -6.54012 2.4352 9 17 
11.4588 -7.37327 2.09413 9 17 
10.5906 -6.51799 0.777191 9 17 
11.3837 -5.58154 2.0859 9 17 
10.1488 -6.53024 2.28448 10 17 
11.2958 -7.1495 2.03061 10 17 
10.6527 -6.51523 1.05578 10 17 
11.2407 -5.821 2.02753 10 17 
-2.5674 10.0321 -9.58234 8 18 
-1.72076 10.7322 -9.58283 9 18 
-3.37163 10.4294 -8.94851 9 18 
-2.93853 9.90734 -10.6089 9 18 
-2.24069 9.05936 -9.19018 9 18 
-1.94085 10.5498 -9.58134 10 18 
-3.164 10.328 -9.11242 10 18 
-2.84237 9.94124 -10.3427 10 18 
-2.32347 9.3133 -9.2899 10 18 
-3.65604 -8.92792 3.38481 8 19 
-2.93874 -9.24922 4.15282 9 19 
-3.95908 -7.8904 3.57627 9 19 
-3.18458 -8.99498 2.39355 9 19 
-4.54077 -9.57908 3.41361 9 19 
-3.12519 -9.16522 3.95416 10 19 
-3.88025 -8.15875 3.52763 10 19 
-3.30532 -8.97773 2.65115 10 19 
-4.31136 -9.40996 3.40929 10 19 
-2.47923 -10.0212 -9.54699 8 20 
-1.44024 -10.3744 -9.51154 9 20 
-2.49521 -8.92318 -9.50835 9 20 
-2.95026 -10.3619 -10.4801 9 20 
-3.0342 -10.4251 -8.68796 9 20 
-1.70976 -10.2819 -9.5204 10 20 
-2.49166 -9.20718 -9.519 10 20 
-2.82751 -10.2739 -10.2383 10 20 
-2.88799 -10.3196 -8.90923 10 20 
7.66092 12.757 0.134731 8 21 
8.3839 -12.2599 0.641389 9 21 
7.34214 -12.4456 -0.805916 9 21 
8.12879 11.7853 -0.0778308 9 21 
6.78489 12.6061 0.781394 9 21 
8.19612 -12.428 0.509392 10 21 
7.42543 -12.566 -0.563727 10 21 
8.0093 12.0378 -0.022826 10 21 
7.01283 12.6483 0.615049 10 21 
-9.03418 4.06613 -4.06935 8 22 
-8.15014 3.8164 -4.6705 9 22 
-9.93726 3.9584 -4.68319 9 22 
-9.09362 3.38625 -3.20731 9 22 