Title

1147 atoms
14 atom types
252 bonds
252 bond types

-13.649000 13.649000 xlo xhi
-13.649000 13.649000 ylo yhi
-8.092000 8.092000 zlo zhi


Atoms

1 1 1 0.28930 -13.649 -13.649 -4.046 #CU
2 1 1 0.28930 -6.825 -6.825 -8.092 #CU
3 1 1 0.28930 -0.001 -13.649 -4.046 #CU
4 1 1 0.28930 6.824 -6.825 -8.092 #CU
5 1 1 0.28930 -13.649 -0.001 -4.046 #CU
6 1 1 0.28930 -6.825 6.824 -8.092 #CU
7 1 1 0.28930 -13.649 -13.649 4.046 #CU
8 1 1 0.28930 -6.825 -6.825 0.000 #CU
9 1 1 0.28930 -0.001 -0.001 -4.046 #CU
10 1 1 0.28930 6.824 6.824 -8.092 #CU
11 1 1 0.28930 -0.001 -13.649 4.046 #CU
12 1 1 0.28930 6.824 -6.825 0.000 #CU
13 1 1 0.28930 -13.649 -0.001 4.046 #CU
14 1 1 0.28930 -6.825 6.824 0.000 #CU
15 1 1 0.28930 -0.001 -0.001 4.046 #CU
16 1 1 0.28930 6.824 6.824 0.000 #CU
17 1 2 1.58870 -13.649 -13.649 -8.092 #SI
18 1 2 1.58870 -6.825 -6.825 -4.046 #SI
19 1 2 1.58870 -0.001 -13.649 -8.092 #SI
20 1 2 1.58870 6.824 -6.825 -4.046 #SI
21 1 2 1.58870 -13.649 -0.001 -8.092 #SI
22 1 2 1.58870 -6.825 6.824 -4.046 #SI
23 1 2 1.58870 -13.649 -13.649 0.000 #SI
24 1 2 1.58870 -6.825 -6.825 4.046 #SI
25 1 2 1.58870 -0.001 -0.001 -8.092 #SI
26 1 2 1.58870 6.824 6.824 -4.046 #SI
27 1 2 1.58870 -0.001 -13.649 0.000 #SI
28 1 2 1.58870 6.824 -6.825 4.046 #SI
29 1 2 1.58870 -13.649 -0.001 0.000 #SI
30 1 2 1.58870 -6.825 6.824 4.046 #SI
31 1 2 1.58870 -0.001 -0.001 0.000 #SI
32 1 2 1.58870 6.824 6.824 4.046 #SI
33 1 3 -0.05720 -13.649 -11.636 -4.046 #NI
34 1 3 -0.05720 -6.825 -4.811 -8.092 #NI
35 1 3 -0.05720 -13.649 -2.013 -4.046 #NI
36 1 3 -0.05720 -6.825 -8.839 -8.092 #NI
37 1 3 -0.05720 -2.013 -13.649 -4.046 #NI
38 1 3 -0.05720 -8.839 -6.825 -8.092 #NI
39 1 3 -0.05720 -11.636 -13.649 -4.046 #NI
40 1 3 -0.05720 -4.811 -6.825 -8.092 #NI
41 1 3 -0.05720 -0.001 -11.636 -4.046 #NI
42 1 3 -0.05720 6.824 -4.811 -8.092 #NI
43 1 3 -0.05720 -0.001 -2.013 -4.046 #NI
44 1 3 -0.05720 6.824 -8.839 -8.092 #NI
45 1 3 -0.05720 11.636 -13.649 -4.046 #NI
46 1 3 -0.05720 4.810 -6.825 -8.092 #NI
47 1 3 -0.05720 2.013 -13.649 -4.046 #NI
48 1 3 -0.05720 8.838 -6.825 -8.092 #NI
49 1 3 -0.05720 -13.649 2.013 -4.046 #NI
50 1 3 -0.05720 -6.825 8.838 -8.092 #NI
51 1 3 -0.05720 -13.649 11.636 -4.046 #NI
52 1 3 -0.05720 -6.825 4.810 -8.092 #NI
53 1 3 -0.05720 -2.013 -0.001 -4.046 #NI
54 1 3 -0.05720 -8.839 6.824 -8.092 #NI
55 1 3 -0.05720 -11.636 -0.001 -4.046 #NI
56 1 3 -0.05720 -4.811 6.824 -8.092 #NI
57 1 3 -0.05720 -13.649 -11.636 4.046 #NI
58 1 3 -0.05720 -6.825 -4.811 0.000 #NI
59 1 3 -0.05720 -13.649 -2.013 4.046 #NI
60 1 3 -0.05720 -6.825 -8.839 0.000 #NI
61 1 3 -0.05720 -2.013 -13.649 4.046 #NI
62 1 3 -0.05720 -8.839 -6.825 0.000 #NI
63 1 3 -0.05720 -11.636 -13.649 4.046 #NI
64 1 3 -0.05720 -4.811 -6.825 0.000 #NI
65 1 3 -0.05720 -0.001 2.013 -4.046 #NI
66 1 3 -0.05720 6.824 8.838 -8.092 #NI
67 1 3 -0.05720 -0.001 11.636 -4.046 #NI
68 1 3 -0.05720 6.824 4.810 -8.092 #NI
69 1 3 -0.05720 11.636 -0.001 -4.046 #NI
70 1 3 -0.05720 4.810 6.824 -8.092 #NI
71 1 3 -0.05720 2.013 -0.001 -4.046 #NI
72 1 3 -0.05720 8.838 6.824 -8.092 #NI
73 1 3 -0.05720 -0.001 -11.636 4.046 #NI
74 1 3 -0.05720 6.824 -4.811 0.000 #NI
75 1 3 -0.05720 -0.001 -2.013 4.046 #NI
76 1 3 -0.05720 6.824 -8.839 0.000 #NI
77 1 3 -0.05720 11.636 -13.649 4.046 #NI
78 1 3 -0.05720 4.810 -6.825 0.000 #NI
79 1 3 -0.05720 2.013 -13.649 4.046 #NI
80 1 3 -0.05720 8.838 -6.825 0.000 #NI
81 1 3 -0.05720 -13.649 2.013 4.046 #NI
82 1 3 -0.05720 -6.825 8.838 0.000 #NI
83 1 3 -0.05720 -13.649 11.636 4.046 #NI
84 1 3 -0.05720 -6.825 4.810 0.000 #NI
85 1 3 -0.05720 -2.013 -0.001 4.046 #NI
86 1 3 -0.05720 -8.839 6.824 0.000 #NI
87 1 3 -0.05720 -11.636 -0.001 4.046 #NI
88 1 3 -0.05720 -4.811 6.824 0.000 #NI
89 1 3 -0.05720 -0.001 2.013 4.046 #NI
90 1 3 -0.05720 6.824 8.838 0.000 #NI
91 1 3 -0.05720 -0.001 11.636 4.046 #NI
92 1 3 -0.05720 6.824 4.810 0.000 #NI
93 1 3 -0.05720 11.636 -0.001 4.046 #NI
94 1 3 -0.05720 4.810 6.824 0.000 #NI
95 1 3 -0.05720 2.013 -0.001 4.046 #NI
96 1 3 -0.05720 8.838 6.824 0.000 #NI
97 1 4 -0.53420 -13.649 -13.649 -1.694 #F1
98 1 4 -0.53420 -13.649 -13.649 -6.398 #F1
99 1 4 -0.53420 -6.825 -6.825 -5.740 #F1
100 1 4 -0.53420 -6.825 -6.825 -2.352 #F1
101 1 4 -0.53420 -0.001 -13.649 -1.694 #F1
102 1 4 -0.53420 -0.001 -13.649 -6.398 #F1
103 1 4 -0.53420 6.824 -6.825 -5.740 #F1
104 1 4 -0.53420 6.824 -6.825 -2.352 #F1
105 1 4 -0.53420 -13.649 -0.001 -1.694 #F1
106 1 4 -0.53420 -13.649 -0.001 -6.398 #F1
107 1 4 -0.53420 -6.825 6.824 -5.740 #F1
108 1 4 -0.53420 -6.825 6.824 -2.352 #F1
109 1 4 -0.53420 -13.649 -13.649 6.398 #F1
110 1 4 -0.53420 -13.649 -13.649 1.694 #F1
111 1 4 -0.53420 -6.825 -6.825 2.352 #F1
112 1 4 -0.53420 -6.825 -6.825 5.740 #F1
113 1 4 -0.53420 -0.001 -0.001 -1.694 #F1
114 1 4 -0.53420 -0.001 -0.001 -6.398 #F1
115 1 4 -0.53420 6.824 6.824 -5.740 #F1
116 1 4 -0.53420 6.824 6.824 -2.352 #F1
117 1 4 -0.53420 -0.001 -13.649 6.398 #F1
118 1 4 -0.53420 -0.001 -13.649 1.694 #F1
119 1 4 -0.53420 6.824 -6.825 2.352 #F1
120 1 4 -0.53420 6.824 -6.825 5.740 #F1
121 1 4 -0.53420 -13.649 -0.001 6.398 #F1
122 1 4 -0.53420 -13.649 -0.001 1.694 #F1
123 1 4 -0.53420 -6.825 6.824 2.352 #F1
124 1 4 -0.53420 -6.825 6.824 5.740 #F1
125 1 4 -0.53420 -0.001 -0.001 6.398 #F1
126 1 4 -0.53420 -0.001 -0.001 1.694 #F1
127 1 4 -0.53420 6.824 6.824 2.352 #F1
128 1 4 -0.53420 6.824 6.824 5.740 #F1
129 1 5 -0.56270 -12.761 -12.264 -8.092 #F2
130 1 5 -0.56270 -0.888 -1.385 -8.092 #F2
131 1 5 -0.56270 -1.385 -12.761 -8.092 #F2
132 1 5 -0.56270 -12.264 -0.888 -8.092 #F2
133 1 5 -0.56270 -5.439 -7.713 -4.046 #F2
134 1 5 -0.56270 -5.938 -5.439 -4.046 #F2
135 1 5 -0.56270 -8.211 -5.938 -4.046 #F2
136 1 5 -0.56270 -7.713 -8.211 -4.046 #F2
137 1 5 -0.56270 0.888 -12.264 -8.092 #F2
138 1 5 -0.56270 12.761 -1.385 -8.092 #F2
139 1 5 -0.56270 12.264 -12.761 -8.092 #F2
140 1 5 -0.56270 1.386 -0.888 -8.092 #F2
141 1 5 -0.56270 8.210 -7.713 -4.046 #F2
142 1 5 -0.56270 7.712 -5.439 -4.046 #F2
143 1 5 -0.56270 5.438 -5.938 -4.046 #F2
144 1 5 -0.56270 5.936 -8.211 -4.046 #F2
145 1 5 -0.56270 -12.761 1.386 -8.092 #F2
146 1 5 -0.56270 -0.888 12.264 -8.092 #F2
147 1 5 -0.56270 -1.385 0.888 -8.092 #F2
148 1 5 -0.56270 -12.264 12.761 -8.092 #F2
149 1 5 -0.56270 -5.439 5.936 -4.046 #F2
150 1 5 -0.56270 -5.938 8.210 -4.046 #F2
151 1 5 -0.56270 -8.211 7.712 -4.046 #F2
152 1 5 -0.56270 -7.713 5.438 -4.046 #F2
153 1 5 -0.56270 -12.761 -12.264 0.000 #F2
154 1 5 -0.56270 -0.888 -1.385 0.000 #F2
155 1 5 -0.56270 -1.385 -12.761 0.000 #F2
156 1 5 -0.56270 -12.264 -0.888 0.000 #F2
157 1 5 -0.56270 -5.439 -7.713 4.046 #F2
158 1 5 -0.56270 -5.938 -5.439 4.046 #F2
159 1 5 -0.56270 -8.211 -5.938 4.046 #F2
160 1 5 -0.56270 -7.713 -8.211 4.046 #F2
161 1 5 -0.56270 0.888 1.386 -8.092 #F2
162 1 5 -0.56270 12.761 12.264 -8.092 #F2
163 1 5 -0.56270 12.264 0.888 -8.092 #F2
164 1 5 -0.56270 1.386 12.761 -8.092 #F2
165 1 5 -0.56270 8.210 5.936 -4.046 #F2
166 1 5 -0.56270 7.712 8.210 -4.046 #F2
167 1 5 -0.56270 5.438 7.712 -4.046 #F2
168 1 5 -0.56270 5.936 5.438 -4.046 #F2
169 1 5 -0.56270 0.888 -12.264 0.000 #F2
170 1 5 -0.56270 12.761 -1.385 0.000 #F2
171 1 5 -0.56270 12.264 -12.761 0.000 #F2
172 1 5 -0.56270 1.386 -0.888 0.000 #F2
173 1 5 -0.56270 8.210 -7.713 4.046 #F2
174 1 5 -0.56270 7.712 -5.439 4.046 #F2
175 1 5 -0.56270 5.438 -5.938 4.046 #F2
176 1 5 -0.56270 5.936 -8.211 4.046 #F2
177 1 5 -0.56270 -12.761 1.386 0.000 #F2
178 1 5 -0.56270 -0.888 12.264 0.000 #F2
179 1 5 -0.56270 -1.385 0.888 0.000 #F2
180 1 5 -0.56270 -12.264 12.761 0.000 #F2
181 1 5 -0.56270 -5.439 5.936 4.046 #F2
182 1 5 -0.56270 -5.938 8.210 4.046 #F2
183 1 5 -0.56270 -8.211 7.712 4.046 #F2
184 1 5 -0.56270 -7.713 5.438 4.046 #F2
185 1 5 -0.56270 0.888 1.386 0.000 #F2
186 1 5 -0.56270 12.761 12.264 0.000 #F2
187 1 5 -0.56270 12.264 0.888 0.000 #F2
188 1 5 -0.56270 1.386 12.761 0.000 #F2
189 1 5 -0.56270 8.210 5.936 4.046 #F2
190 1 5 -0.56270 7.712 8.210 4.046 #F2
191 1 5 -0.56270 5.438 7.712 4.046 #F2
192 1 5 -0.56270 5.936 5.438 4.046 #F2
193 1 6 0.14510 -13.649 -10.951 -5.160 #C1
194 1 6 0.14510 -6.825 -4.127 -1.114 #C1
195 1 6 0.14510 -13.649 -2.699 -5.160 #C1
196 1 6 0.14510 -6.825 -9.522 -1.114 #C1
197 1 6 0.14510 -2.699 -13.649 -5.160 #C1
198 1 6 0.14510 -9.522 -6.825 -1.114 #C1
199 1 6 0.14510 -10.951 -13.649 -5.160 #C1
200 1 6 0.14510 -4.127 -6.825 -1.114 #C1
201 1 6 0.14510 -13.649 -10.951 -2.932 #C1
202 1 6 0.14510 -6.825 -4.127 -6.978 #C1
203 1 6 0.14510 -13.649 -2.699 -2.932 #C1
204 1 6 0.14510 -6.825 -9.522 -6.978 #C1
205 1 6 0.14510 -10.951 -13.649 -2.932 #C1
206 1 6 0.14510 -4.127 -6.825 -6.978 #C1
207 1 6 0.14510 -2.699 -13.649 -2.932 #C1
208 1 6 0.14510 -9.522 -6.825 -6.978 #C1
209 1 6 0.14510 -0.001 -10.951 -5.160 #C1
210 1 6 0.14510 6.824 -4.127 -1.114 #C1
211 1 6 0.14510 -0.001 -2.699 -5.160 #C1
212 1 6 0.14510 6.824 -9.522 -1.114 #C1
213 1 6 0.14510 10.950 -13.649 -5.160 #C1
214 1 6 0.14510 4.127 -6.825 -1.114 #C1
215 1 6 0.14510 2.699 -13.649 -5.160 #C1
216 1 6 0.14510 9.523 -6.825 -1.114 #C1
217 1 6 0.14510 -0.001 -10.951 -2.932 #C1
218 1 6 0.14510 6.824 -4.127 -6.978 #C1
219 1 6 0.14510 -0.001 -2.699 -2.932 #C1
220 1 6 0.14510 6.824 -9.522 -6.978 #C1
221 1 6 0.14510 2.699 -13.649 -2.932 #C1
222 1 6 0.14510 9.523 -6.825 -6.978 #C1
223 1 6 0.14510 10.950 -13.649 -2.932 #C1
224 1 6 0.14510 4.127 -6.825 -6.978 #C1
225 1 6 0.14510 -13.649 2.699 -5.160 #C1
226 1 6 0.14510 -6.825 9.523 -1.114 #C1
227 1 6 0.14510 -13.649 10.950 -5.160 #C1
228 1 6 0.14510 -6.825 4.127 -1.114 #C1
229 1 6 0.14510 -2.699 -0.001 -5.160 #C1
230 1 6 0.14510 -9.522 6.824 -1.114 #C1
231 1 6 0.14510 -10.951 -0.001 -5.160 #C1
232 1 6 0.14510 -4.127 6.824 -1.114 #C1
233 1 6 0.14510 -13.649 2.699 -2.932 #C1
234 1 6 0.14510 -6.825 9.523 -6.978 #C1
235 1 6 0.14510 -13.649 10.950 -2.932 #C1
236 1 6 0.14510 -6.825 4.127 -6.978 #C1
237 1 6 0.14510 -10.951 -0.001 -2.932 #C1
238 1 6 0.14510 -4.127 6.824 -6.978 #C1
239 1 6 0.14510 -2.699 -0.001 -2.932 #C1
240 1 6 0.14510 -9.522 6.824 -6.978 #C1
241 1 6 0.14510 -13.649 -10.951 2.932 #C1
242 1 6 0.14510 -6.825 -4.127 6.978 #C1
243 1 6 0.14510 -13.649 -2.699 2.932 #C1
244 1 6 0.14510 -6.825 -9.522 6.978 #C1
245 1 6 0.14510 -2.699 -13.649 2.932 #C1
246 1 6 0.14510 -9.522 -6.825 6.978 #C1
247 1 6 0.14510 -10.951 -13.649 2.932 #C1
248 1 6 0.14510 -4.127 -6.825 6.978 #C1
249 1 6 0.14510 -13.649 -10.951 5.160 #C1
250 1 6 0.14510 -6.825 -4.127 1.114 #C1
251 1 6 0.14510 -13.649 -2.699 5.160 #C1
252 1 6 0.14510 -6.825 -9.522 1.114 #C1
253 1 6 0.14510 -10.951 -13.649 5.160 #C1
254 1 6 0.14510 -4.127 -6.825 1.114 #C1
255 1 6 0.14510 -2.699 -13.649 5.160 #C1
256 1 6 0.14510 -9.522 -6.825 1.114 #C1
257 1 6 0.14510 -0.001 2.699 -5.160 #C1
258 1 6 0.14510 6.824 9.523 -1.114 #C1
259 1 6 0.14510 -0.001 10.950 -5.160 #C1
260 1 6 0.14510 6.824 4.127 -1.114 #C1
261 1 6 0.14510 10.950 -0.001 -5.160 #C1
262 1 6 0.14510 4.127 6.824 -1.114 #C1
263 1 6 0.14510 2.699 -0.001 -5.160 #C1
264 1 6 0.14510 9.523 6.824 -1.114 #C1
265 1 6 0.14510 -0.001 2.699 -2.932 #C1
266 1 6 0.14510 6.824 9.523 -6.978 #C1
267 1 6 0.14510 -0.001 10.950 -2.932 #C1
268 1 6 0.14510 6.824 4.127 -6.978 #C1
269 1 6 0.14510 2.699 -0.001 -2.932 #C1
270 1 6 0.14510 9.523 6.824 -6.978 #C1
271 1 6 0.14510 10.950 -0.001 -2.932 #C1
272 1 6 0.14510 4.127 6.824 -6.978 #C1
273 1 6 0.14510 -0.001 -10.951 2.932 #C1
274 1 6 0.14510 6.824 -4.127 6.978 #C1
275 1 6 0.14510 -0.001 -2.699 2.932 #C1
276 1 6 0.14510 6.824 -9.522 6.978 #C1
277 1 6 0.14510 10.950 -13.649 2.932 #C1
278 1 6 0.14510 4.127 -6.825 6.978 #C1
279 1 6 0.14510 2.699 -13.649 2.932 #C1
280 1 6 0.14510 9.523 -6.825 6.978 #C1
281 1 6 0.14510 -0.001 -10.951 5.160 #C1
282 1 6 0.14510 6.824 -4.127 1.114 #C1
283 1 6 0.14510 -0.001 -2.699 5.160 #C1
284 1 6 0.14510 6.824 -9.522 1.114 #C1
285 1 6 0.14510 2.699 -13.649 5.160 #C1
286 1 6 0.14510 9.523 -6.825 1.114 #C1
287 1 6 0.14510 10.950 -13.649 5.160 #C1
288 1 6 0.14510 4.127 -6.825 1.114 #C1
289 1 6 0.14510 -13.649 2.699 2.932 #C1
290 1 6 0.14510 -6.825 9.523 6.978 #C1
291 1 6 0.14510 -13.649 10.950 2.932 #C1
292 1 6 0.14510 -6.825 4.127 6.978 #C1
293 1 6 0.14510 -2.699 -0.001 2.932 #C1
294 1 6 0.14510 -9.522 6.824 6.978 #C1
295 1 6 0.14510 -10.951 -0.001 2.932 #C1
296 1 6 0.14510 -4.127 6.824 6.978 #C1
297 1 6 0.14510 -13.649 2.699 5.160 #C1
298 1 6 0.14510 -6.825 9.523 1.114 #C1
299 1 6 0.14510 -13.649 10.950 5.160 #C1
300 1 6 0.14510 -6.825 4.127 1.114 #C1
301 1 6 0.14510 -10.951 -0.001 5.160 #C1
302 1 6 0.14510 -4.127 6.824 1.114 #C1
303 1 6 0.14510 -2.699 -0.001 5.160 #C1
304 1 6 0.14510 -9.522 6.824 1.114 #C1
305 1 6 0.14510 -0.001 2.699 2.932 #C1
306 1 6 0.14510 6.824 9.523 6.978 #C1
307 1 6 0.14510 -0.001 10.950 2.932 #C1
308 1 6 0.14510 6.824 4.127 6.978 #C1
309 1 6 0.14510 10.950 -0.001 2.932 #C1
310 1 6 0.14510 4.127 6.824 6.978 #C1
311 1 6 0.14510 2.699 -0.001 2.932 #C1
312 1 6 0.14510 9.523 6.824 6.978 #C1
313 1 6 0.14510 -0.001 2.699 5.160 #C1
314 1 6 0.14510 6.824 9.523 1.114 #C1
315 1 6 0.14510 -0.001 10.950 5.160 #C1
316 1 6 0.14510 6.824 4.127 1.114 #C1
317 1 6 0.14510 2.699 -0.001 5.160 #C1
318 1 6 0.14510 9.523 6.824 1.114 #C1
319 1 6 0.14510 10.950 -0.001 5.160 #C1
320 1 6 0.14510 4.127 6.824 1.114 #C1
321 1 7 -0.32090 -13.649 -9.551 -5.226 #C2
322 1 7 -0.32090 -6.825 -2.725 -1.180 #C2
323 1 7 -0.32090 -13.649 -4.099 -5.226 #C2
324 1 7 -0.32090 -6.825 -10.924 -1.180 #C2
325 1 7 -0.32090 -4.099 -13.649 -5.226 #C2
326 1 7 -0.32090 -10.924 -6.825 -1.180 #C2
327 1 7 -0.32090 -9.551 -13.649 -5.226 #C2
328 1 7 -0.32090 -2.725 -6.825 -1.180 #C2
329 1 7 -0.32090 -13.649 -9.551 -2.866 #C2
330 1 7 -0.32090 -6.825 -2.725 -6.912 #C2
331 1 7 -0.32090 -13.649 -4.099 -2.866 #C2
332 1 7 -0.32090 -6.825 -10.924 -6.912 #C2
333 1 7 -0.32090 -9.551 -13.649 -2.866 #C2
334 1 7 -0.32090 -2.725 -6.825 -6.912 #C2
335 1 7 -0.32090 -4.099 -13.649 -2.866 #C2
336 1 7 -0.32090 -10.924 -6.825 -6.912 #C2
337 1 7 -0.32090 -0.001 -9.551 -5.226 #C2
338 1 7 -0.32090 6.824 -2.725 -1.180 #C2
339 1 7 -0.32090 -0.001 -4.099 -5.226 #C2
340 1 7 -0.32090 6.824 -10.924 -1.180 #C2
341 1 7 -0.32090 9.550 -13.649 -5.226 #C2
342 1 7 -0.32090 2.726 -6.825 -1.180 #C2
343 1 7 -0.32090 4.098 -13.649 -5.226 #C2
344 1 7 -0.32090 10.924 -6.825 -1.180 #C2
345 1 7 -0.32090 -0.001 -9.551 -2.866 #C2
346 1 7 -0.32090 6.824 -2.725 -6.912 #C2
347 1 7 -0.32090 -0.001 -4.099 -2.866 #C2
348 1 7 -0.32090 6.824 -10.924 -6.912 #C2
349 1 7 -0.32090 4.098 -13.649 -2.866 #C2
350 1 7 -0.32090 10.924 -6.825 -6.912 #C2
351 1 7 -0.32090 9.550 -13.649 -2.866 #C2
352 1 7 -0.32090 2.726 -6.825 -6.912 #C2
353 1 7 -0.32090 -13.649 4.098 -5.226 #C2
354 1 7 -0.32090 -6.825 10.924 -1.180 #C2
355 1 7 -0.32090 -13.649 9.550 -5.226 #C2
356 1 7 -0.32090 -6.825 2.726 -1.180 #C2
357 1 7 -0.32090 -4.099 -0.001 -5.226 #C2
358 1 7 -0.32090 -10.924 6.824 -1.180 #C2
359 1 7 -0.32090 -9.551 -0.001 -5.226 #C2
360 1 7 -0.32090 -2.725 6.824 -1.180 #C2
361 1 7 -0.32090 -13.649 4.098 -2.866 #C2
362 1 7 -0.32090 -6.825 10.924 -6.912 #C2
363 1 7 -0.32090 -13.649 9.550 -2.866 #C2
364 1 7 -0.32090 -6.825 2.726 -6.912 #C2
365 1 7 -0.32090 -9.551 -0.001 -2.866 #C2
366 1 7 -0.32090 -2.725 6.824 -6.912 #C2
367 1 7 -0.32090 -4.099 -0.001 -2.866 #C2
368 1 7 -0.32090 -10.924 6.824 -6.912 #C2
369 1 7 -0.32090 -13.649 -9.551 2.866 #C2
370 1 7 -0.32090 -6.825 -2.725 6.912 #C2
371 1 7 -0.32090 -13.649 -4.099 2.866 #C2
372 1 7 -0.32090 -6.825 -10.924 6.912 #C2
373 1 7 -0.32090 -4.099 -13.649 2.866 #C2
374 1 7 -0.32090 -10.924 -6.825 6.912 #C2
375 1 7 -0.32090 -9.551 -13.649 2.866 #C2
376 1 7 -0.32090 -2.725 -6.825 6.912 #C2
377 1 7 -0.32090 -13.649 -9.551 5.226 #C2
378 1 7 -0.32090 -6.825 -2.725 1.180 #C2
379 1 7 -0.32090 -13.649 -4.099 5.226 #C2
380 1 7 -0.32090 -6.825 -10.924 1.180 #C2
381 1 7 -0.32090 -9.551 -13.649 5.226 #C2
382 1 7 -0.32090 -2.725 -6.825 1.180 #C2
383 1 7 -0.32090 -4.099 -13.649 5.226 #C2
384 1 7 -0.32090 -10.924 -6.825 1.180 #C2
385 1 7 -0.32090 -0.001 4.098 -5.226 #C2
386 1 7 -0.32090 6.824 10.924 -1.180 #C2
387 1 7 -0.32090 -0.001 9.550 -5.226 #C2
388 1 7 -0.32090 6.824 2.726 -1.180 #C2
389 1 7 -0.32090 9.550 -0.001 -5.226 #C2
390 1 7 -0.32090 2.726 6.824 -1.180 #C2
391 1 7 -0.32090 4.098 -0.001 -5.226 #C2
392 1 7 -0.32090 10.924 6.824 -1.180 #C2
393 1 7 -0.32090 -0.001 4.098 -2.866 #C2
394 1 7 -0.32090 6.824 10.924 -6.912 #C2
395 1 7 -0.32090 -0.001 9.550 -2.866 #C2
396 1 7 -0.32090 6.824 2.726 -6.912 #C2
397 1 7 -0.32090 4.098 -0.001 -2.866 #C2
398 1 7 -0.32090 10.924 6.824 -6.912 #C2
399 1 7 -0.32090 9.550 -0.001 -2.866 #C2
400 1 7 -0.32090 2.726 6.824 -6.912 #C2
401 1 7 -0.32090 -0.001 -9.551 2.866 #C2
402 1 7 -0.32090 6.824 -2.725 6.912 #C2
403 1 7 -0.32090 -0.001 -4.099 2.866 #C2
404 1 7 -0.32090 6.824 -10.924 6.912 #C2
405 1 7 -0.32090 9.550 -13.649 2.866 #C2
406 1 7 -0.32090 2.726 -6.825 6.912 #C2
407 1 7 -0.32090 4.098 -13.649 2.866 #C2
408 1 7 -0.32090 10.924 -6.825 6.912 #C2
409 1 7 -0.32090 -0.001 -9.551 5.226 #C2
410 1 7 -0.32090 6.824 -2.725 1.180 #C2
411 1 7 -0.32090 -0.001 -4.099 5.226 #C2
412 1 7 -0.32090 6.824 -10.924 1.180 #C2
413 1 7 -0.32090 4.098 -13.649 5.226 #C2
414 1 7 -0.32090 10.924 -6.825 1.180 #C2
415 1 7 -0.32090 9.550 -13.649 5.226 #C2
416 1 7 -0.32090 2.726 -6.825 1.180 #C2
417 1 7 -0.32090 -13.649 4.098 2.866 #C2
418 1 7 -0.32090 -6.825 10.924 6.912 #C2
419 1 7 -0.32090 -13.649 9.550 2.866 #C2
420 1 7 -0.32090 -6.825 2.726 6.912 #C2
421 1 7 -0.32090 -4.099 -0.001 2.866 #C2
422 1 7 -0.32090 -10.924 6.824 6.912 #C2
423 1 7 -0.32090 -9.551 -0.001 2.866 #C2
424 1 7 -0.32090 -2.725 6.824 6.912 #C2
425 1 7 -0.32090 -13.649 4.098 5.226 #C2
426 1 7 -0.32090 -6.825 10.924 1.180 #C2
427 1 7 -0.32090 -13.649 9.550 5.226 #C2
428 1 7 -0.32090 -6.825 2.726 1.180 #C2
429 1 7 -0.32090 -9.551 -0.001 5.226 #C2
430 1 7 -0.32090 -2.725 6.824 1.180 #C2
431 1 7 -0.32090 -4.099 -0.001 5.226 #C2
432 1 7 -0.32090 -10.924 6.824 1.180 #C2
433 1 7 -0.32090 -0.001 4.098 2.866 #C2
434 1 7 -0.32090 6.824 10.924 6.912 #C2
435 1 7 -0.32090 -0.001 9.550 2.866 #C2
436 1 7 -0.32090 6.824 2.726 6.912 #C2
437 1 7 -0.32090 9.550 -0.001 2.866 #C2
438 1 7 -0.32090 2.726 6.824 6.912 #C2
439 1 7 -0.32090 4.098 -0.001 2.866 #C2
440 1 7 -0.32090 10.924 6.824 6.912 #C2
441 1 7 -0.32090 -0.001 4.098 5.226 #C2
442 1 7 -0.32090 6.824 10.924 1.180 #C2
443 1 7 -0.32090 -0.001 9.550 5.226 #C2
444 1 7 -0.32090 6.824 2.726 1.180 #C2
445 1 7 -0.32090 4.098 -0.001 5.226 #C2
446 1 7 -0.32090 10.924 6.824 1.180 #C2
447 1 7 -0.32090 9.550 -0.001 5.226 #C2
448 1 7 -0.32090 2.726 6.824 1.180 #C2
449 1 8 0.25390 -13.649 -8.846 -4.046 #C3
450 1 8 0.25390 -6.825 -2.021 -8.092 #C3
451 1 8 0.25390 -13.649 -4.804 -4.046 #C3
452 1 8 0.25390 -6.825 -11.630 -8.092 #C3
453 1 8 0.25390 -4.804 -13.649 -4.046 #C3
454 1 8 0.25390 -11.630 -6.825 -8.092 #C3
455 1 8 0.25390 -8.846 -13.649 -4.046 #C3
456 1 8 0.25390 -2.021 -6.825 -8.092 #C3
457 1 8 0.25390 -0.001 -8.846 -4.046 #C3
458 1 8 0.25390 6.824 -2.021 -8.092 #C3
459 1 8 0.25390 -0.001 -4.804 -4.046 #C3
460 1 8 0.25390 6.824 -11.630 -8.092 #C3
461 1 8 0.25390 8.845 -13.649 -4.046 #C3
462 1 8 0.25390 2.019 -6.825 -8.092 #C3
463 1 8 0.25390 4.804 -13.649 -4.046 #C3
464 1 8 0.25390 11.628 -6.825 -8.092 #C3
465 1 8 0.25390 -13.649 4.804 -4.046 #C3
466 1 8 0.25390 -6.825 11.628 -8.092 #C3
467 1 8 0.25390 -13.649 8.845 -4.046 #C3
468 1 8 0.25390 -6.825 2.019 -8.092 #C3
469 1 8 0.25390 -4.804 -0.001 -4.046 #C3
470 1 8 0.25390 -11.630 6.824 -8.092 #C3
471 1 8 0.25390 -8.846 -0.001 -4.046 #C3
472 1 8 0.25390 -2.021 6.824 -8.092 #C3
473 1 8 0.25390 -13.649 -8.846 4.046 #C3
474 1 8 0.25390 -6.825 -2.021 0.000 #C3
475 1 8 0.25390 -13.649 -4.804 4.046 #C3
476 1 8 0.25390 -6.825 -11.630 0.000 #C3
477 1 8 0.25390 -4.804 -13.649 4.046 #C3
478 1 8 0.25390 -11.630 -6.825 0.000 #C3
479 1 8 0.25390 -8.846 -13.649 4.046 #C3
480 1 8 0.25390 -2.021 -6.825 0.000 #C3
481 1 8 0.25390 -0.001 4.804 -4.046 #C3
482 1 8 0.25390 6.824 11.628 -8.092 #C3
483 1 8 0.25390 -0.001 8.845 -4.046 #C3
484 1 8 0.25390 6.824 2.019 -8.092 #C3
485 1 8 0.25390 8.845 -0.001 -4.046 #C3
486 1 8 0.25390 2.019 6.824 -8.092 #C3
487 1 8 0.25390 4.804 -0.001 -4.046 #C3
488 1 8 0.25390 11.628 6.824 -8.092 #C3
489 1 8 0.25390 -0.001 -8.846 4.046 #C3
490 1 8 0.25390 6.824 -2.021 0.000 #C3
491 1 8 0.25390 -0.001 -4.804 4.046 #C3
492 1 8 0.25390 6.824 -11.630 0.000 #C3
493 1 8 0.25390 8.845 -13.649 4.046 #C3
494 1 8 0.25390 2.019 -6.825 0.000 #C3
495 1 8 0.25390 4.804 -13.649 4.046 #C3
496 1 8 0.25390 11.628 -6.825 0.000 #C3
497 1 8 0.25390 -13.649 4.804 4.046 #C3
498 1 8 0.25390 -6.825 11.628 0.000 #C3
499 1 8 0.25390 -13.649 8.845 4.046 #C3
500 1 8 0.25390 -6.825 2.019 0.000 #C3
501 1 8 0.25390 -4.804 -0.001 4.046 #C3
502 1 8 0.25390 -11.630 6.824 0.000 #C3
503 1 8 0.25390 -8.846 -0.001 4.046 #C3
504 1 8 0.25390 -2.021 6.824 0.000 #C3
505 1 8 0.25390 -0.001 4.804 4.046 #C3
506 1 8 0.25390 6.824 11.628 0.000 #C3
507 1 8 0.25390 -0.001 8.845 4.046 #C3
508 1 8 0.25390 6.824 2.019 0.000 #C3
509 1 8 0.25390 8.845 -0.001 4.046 #C3
510 1 8 0.25390 2.019 6.824 0.000 #C3
511 1 8 0.25390 4.804 -0.001 4.046 #C3
512 1 8 0.25390 11.628 6.824 0.000 #C3
513 1 9 -0.15700 -13.649 -7.413 -4.046 #C4
514 1 9 -0.15700 -6.825 -0.589 -8.092 #C4
515 1 9 -0.15700 -13.649 -6.236 -4.046 #C4
516 1 9 -0.15700 -6.825 -13.061 -8.092 #C4
517 1 9 -0.15700 -6.236 -13.649 -4.046 #C4
518 1 9 -0.15700 -13.061 -6.825 -8.092 #C4
519 1 9 -0.15700 -7.413 -13.649 -4.046 #C4
520 1 9 -0.15700 -0.589 -6.825 -8.092 #C4
521 1 9 -0.15700 -0.001 -7.413 -4.046 #C4
522 1 9 -0.15700 6.824 -0.589 -8.092 #C4
523 1 9 -0.15700 -0.001 -6.236 -4.046 #C4
524 1 9 -0.15700 6.824 -13.061 -8.092 #C4
525 1 9 -0.15700 7.413 -13.649 -4.046 #C4
526 1 9 -0.15700 0.589 -6.825 -8.092 #C4
527 1 9 -0.15700 6.234 -13.649 -4.046 #C4
528 1 9 -0.15700 13.061 -6.825 -8.092 #C4
529 1 9 -0.15700 -13.649 6.234 -4.046 #C4
530 1 9 -0.15700 -6.825 13.061 -8.092 #C4
531 1 9 -0.15700 -13.649 7.413 -4.046 #C4
532 1 9 -0.15700 -6.825 0.589 -8.092 #C4
533 1 9 -0.15700 -6.236 -0.001 -4.046 #C4
534 1 9 -0.15700 -13.061 6.824 -8.092 #C4
535 1 9 -0.15700 -7.413 -0.001 -4.046 #C4
536 1 9 -0.15700 -0.589 6.824 -8.092 #C4
537 1 9 -0.15700 -13.649 -7.413 4.046 #C4
538 1 9 -0.15700 -6.825 -0.589 0.000 #C4
539 1 9 -0.15700 -13.649 -6.236 4.046 #C4
540 1 9 -0.15700 -6.825 -13.061 0.000 #C4
541 1 9 -0.15700 -6.236 -13.649 4.046 #C4
542 1 9 -0.15700 -13.061 -6.825 0.000 #C4
543 1 9 -0.15700 -7.413 -13.649 4.046 #C4
544 1 9 -0.15700 -0.589 -6.825 0.000 #C4
545 1 9 -0.15700 -0.001 6.234 -4.046 #C4
546 1 9 -0.15700 6.824 13.061 -8.092 #C4
547 1 9 -0.15700 -0.001 7.413 -4.046 #C4
548 1 9 -0.15700 6.824 0.589 -8.092 #C4
549 1 9 -0.15700 7.413 -0.001 -4.046 #C4
550 1 9 -0.15700 0.589 6.824 -8.092 #C4
551 1 9 -0.15700 6.234 -0.001 -4.046 #C4
552 1 9 -0.15700 13.061 6.824 -8.092 #C4
553 1 9 -0.15700 -0.001 -7.413 4.046 #C4
554 1 9 -0.15700 6.824 -0.589 0.000 #C4
555 1 9 -0.15700 -0.001 -6.236 4.046 #C4
556 1 9 -0.15700 6.824 -13.061 0.000 #C4
557 1 9 -0.15700 7.413 -13.649 4.046 #C4
558 1 9 -0.15700 0.589 -6.825 0.000 #C4
559 1 9 -0.15700 6.234 -13.649 4.046 #C4
560 1 9 -0.15700 13.061 -6.825 0.000 #C4
561 1 9 -0.15700 -13.649 6.234 4.046 #C4
562 1 9 -0.15700 -6.825 13.061 0.000 #C4
563 1 9 -0.15700 -13.649 7.413 4.046 #C4
564 1 9 -0.15700 -6.825 0.589 0.000 #C4
565 1 9 -0.15700 -6.236 -0.001 4.046 #C4
566 1 9 -0.15700 -13.061 6.824 0.000 #C4
567 1 9 -0.15700 -7.413 -0.001 4.046 #C4
568 1 9 -0.15700 -0.589 6.824 0.000 #C4
569 1 9 -0.15700 -0.001 6.234 4.046 #C4
570 1 9 -0.15700 6.824 13.061 0.000 #C4
571 1 9 -0.15700 -0.001 7.413 4.046 #C4
572 1 9 -0.15700 6.824 0.589 0.000 #C4
573 1 9 -0.15700 7.413 -0.001 4.046 #C4
574 1 9 -0.15700 0.589 6.824 0.000 #C4
575 1 9 -0.15700 6.234 -0.001 4.046 #C4
576 1 9 -0.15700 13.061 6.824 0.000 #C4
577 1 10 0.15800 -13.649 -9.101 -6.063 #H1
578 1 10 0.15800 -6.825 -2.277 -2.017 #H1
579 1 10 0.15800 -13.649 -4.548 -6.063 #H1
580 1 10 0.15800 -6.825 -11.373 -2.017 #H1
581 1 10 0.15800 -4.548 -13.649 -6.063 #H1
582 1 10 0.15800 -11.373 -6.825 -2.017 #H1
583 1 10 0.15800 -9.101 -13.649 -6.063 #H1
584 1 10 0.15800 -2.277 -6.825 -2.017 #H1
585 1 10 0.15800 -13.649 -9.101 -2.029 #H1
586 1 10 0.15800 -6.825 -2.277 -6.075 #H1
587 1 10 0.15800 -13.649 -4.548 -2.029 #H1
588 1 10 0.15800 -6.825 -11.373 -6.075 #H1
589 1 10 0.15800 -9.101 -13.649 -2.029 #H1
590 1 10 0.15800 -2.277 -6.825 -6.075 #H1
591 1 10 0.15800 -4.548 -13.649 -2.029 #H1
592 1 10 0.15800 -11.373 -6.825 -6.075 #H1
593 1 10 0.15800 -0.001 -9.101 -6.063 #H1
594 1 10 0.15800 6.824 -2.277 -2.017 #H1
595 1 10 0.15800 -0.001 -4.548 -6.063 #H1
596 1 10 0.15800 6.824 -11.373 -2.017 #H1
597 1 10 0.15800 9.101 -13.649 -6.063 #H1
598 1 10 0.15800 2.276 -6.825 -2.017 #H1
599 1 10 0.15800 4.548 -13.649 -6.063 #H1
600 1 10 0.15800 11.372 -6.825 -2.017 #H1
601 1 10 0.15800 -0.001 -9.101 -2.029 #H1
602 1 10 0.15800 6.824 -2.277 -6.075 #H1
603 1 10 0.15800 -0.001 -4.548 -2.029 #H1
604 1 10 0.15800 6.824 -11.373 -6.075 #H1
605 1 10 0.15800 4.548 -13.649 -2.029 #H1
606 1 10 0.15800 11.372 -6.825 -6.075 #H1
607 1 10 0.15800 9.101 -13.649 -2.029 #H1
608 1 10 0.15800 2.276 -6.825 -6.075 #H1
609 1 10 0.15800 -13.649 4.548 -6.063 #H1
610 1 10 0.15800 -6.825 11.372 -2.017 #H1
611 1 10 0.15800 -13.649 9.101 -6.063 #H1
612 1 10 0.15800 -6.825 2.276 -2.017 #H1
613 1 10 0.15800 -4.548 -0.001 -6.063 #H1
614 1 10 0.15800 -11.373 6.824 -2.017 #H1
615 1 10 0.15800 -9.101 -0.001 -6.063 #H1
616 1 10 0.15800 -2.277 6.824 -2.017 #H1
617 1 10 0.15800 -13.649 4.548 -2.029 #H1
618 1 10 0.15800 -6.825 11.372 -6.075 #H1
619 1 10 0.15800 -13.649 9.101 -2.029 #H1
620 1 10 0.15800 -6.825 2.276 -6.075 #H1
621 1 10 0.15800 -9.101 -0.001 -2.029 #H1
622 1 10 0.15800 -2.277 6.824 -6.075 #H1
623 1 10 0.15800 -4.548 -0.001 -2.029 #H1
624 1 10 0.15800 -11.373 6.824 -6.075 #H1
625 1 10 0.15800 -13.649 -9.101 2.029 #H1
626 1 10 0.15800 -6.825 -2.277 6.075 #H1
627 1 10 0.15800 -13.649 -4.548 2.029 #H1
628 1 10 0.15800 -6.825 -11.373 6.075 #H1
629 1 10 0.15800 -4.548 -13.649 2.029 #H1
630 1 10 0.15800 -11.373 -6.825 6.075 #H1
631 1 10 0.15800 -9.101 -13.649 2.029 #H1
632 1 10 0.15800 -2.277 -6.825 6.075 #H1
633 1 10 0.15800 -13.649 -9.101 6.063 #H1
634 1 10 0.15800 -6.825 -2.277 2.017 #H1
635 1 10 0.15800 -13.649 -4.548 6.063 #H1
636 1 10 0.15800 -6.825 -11.373 2.017 #H1
637 1 10 0.15800 -9.101 -13.649 6.063 #H1
638 1 10 0.15800 -2.277 -6.825 2.017 #H1
639 1 10 0.15800 -4.548 -13.649 6.063 #H1
640 1 10 0.15800 -11.373 -6.825 2.017 #H1
641 1 10 0.15800 -0.001 4.548 -6.063 #H1
642 1 10 0.15800 6.824 11.372 -2.017 #H1
643 1 10 0.15800 -0.001 9.101 -6.063 #H1
644 1 10 0.15800 6.824 2.276 -2.017 #H1
645 1 10 0.15800 9.101 -0.001 -6.063 #H1
646 1 10 0.15800 2.276 6.824 -2.017 #H1
647 1 10 0.15800 4.548 -0.001 -6.063 #H1
648 1 10 0.15800 11.372 6.824 -2.017 #H1
649 1 10 0.15800 -0.001 4.548 -2.029 #H1
650 1 10 0.15800 6.824 11.372 -6.075 #H1
651 1 10 0.15800 -0.001 9.101 -2.029 #H1
652 1 10 0.15800 6.824 2.276 -6.075 #H1
653 1 10 0.15800 4.548 -0.001 -2.029 #H1
654 1 10 0.15800 11.372 6.824 -6.075 #H1
655 1 10 0.15800 9.101 -0.001 -2.029 #H1
656 1 10 0.15800 2.276 6.824 -6.075 #H1
657 1 10 0.15800 -0.001 -9.101 2.029 #H1
658 1 10 0.15800 6.824 -2.277 6.075 #H1
659 1 10 0.15800 -0.001 -4.548 2.029 #H1
660 1 10 0.15800 6.824 -11.373 6.075 #H1
661 1 10 0.15800 9.101 -13.649 2.029 #H1
662 1 10 0.15800 2.276 -6.825 6.075 #H1
663 1 10 0.15800 4.548 -13.649 2.029 #H1
664 1 10 0.15800 11.372 -6.825 6.075 #H1
665 1 10 0.15800 -0.001 -9.101 6.063 #H1
666 1 10 0.15800 6.824 -2.277 2.017 #H1
667 1 10 0.15800 -0.001 -4.548 6.063 #H1
668 1 10 0.15800 6.824 -11.373 2.017 #H1
669 1 10 0.15800 4.548 -13.649 6.063 #H1
670 1 10 0.15800 11.372 -6.825 2.017 #H1
671 1 10 0.15800 9.101 -13.649 6.063 #H1
672 1 10 0.15800 2.276 -6.825 2.017 #H1
673 1 10 0.15800 -13.649 4.548 2.029 #H1
674 1 10 0.15800 -6.825 11.372 6.075 #H1
675 1 10 0.15800 -13.649 9.101 2.029 #H1
676 1 10 0.15800 -6.825 2.276 6.075 #H1
677 1 10 0.15800 -4.548 -0.001 2.029 #H1
678 1 10 0.15800 -11.373 6.824 6.075 #H1
679 1 10 0.15800 -9.101 -0.001 2.029 #H1
680 1 10 0.15800 -2.277 6.824 6.075 #H1
681 1 10 0.15800 -13.649 4.548 6.063 #H1
682 1 10 0.15800 -6.825 11.372 2.017 #H1
683 1 10 0.15800 -13.649 9.101 6.063 #H1
684 1 10 0.15800 -6.825 2.276 2.017 #H1
685 1 10 0.15800 -9.101 -0.001 6.063 #H1
686 1 10 0.15800 -2.277 6.824 2.017 #H1
687 1 10 0.15800 -4.548 -0.001 6.063 #H1
688 1 10 0.15800 -11.373 6.824 2.017 #H1
689 1 10 0.15800 -0.001 4.548 2.029 #H1
690 1 10 0.15800 6.824 11.372 6.075 #H1
691 1 10 0.15800 -0.001 9.101 2.029 #H1
692 1 10 0.15800 6.824 2.276 6.075 #H1
693 1 10 0.15800 9.101 -0.001 2.029 #H1
694 1 10 0.15800 2.276 6.824 6.075 #H1
695 1 10 0.15800 4.548 -0.001 2.029 #H1
696 1 10 0.15800 11.372 6.824 6.075 #H1
697 1 10 0.15800 -0.001 4.548 6.063 #H1
698 1 10 0.15800 6.824 11.372 2.017 #H1
699 1 10 0.15800 -0.001 9.101 6.063 #H1
700 1 10 0.15800 6.824 2.276 2.017 #H1
701 1 10 0.15800 4.548 -0.001 6.063 #H1
702 1 10 0.15800 11.372 6.824 2.017 #H1
703 1 10 0.15800 9.101 -0.001 6.063 #H1
704 1 10 0.15800 2.276 6.824 2.017 #H1
705 1 11 0.17810 -13.649 -11.434 -5.978 #H2
706 1 11 0.17810 -6.825 -4.609 -1.932 #H2
707 1 11 0.17810 -13.649 -2.216 -5.978 #H2
708 1 11 0.17810 -6.825 -9.040 -1.932 #H2
709 1 11 0.17810 -2.216 -13.649 -5.978 #H2
710 1 11 0.17810 -9.040 -6.825 -1.932 #H2
711 1 11 0.17810 -11.434 -13.649 -5.978 #H2
712 1 11 0.17810 -4.609 -6.825 -1.932 #H2
713 1 11 0.17810 -13.649 -11.434 -2.114 #H2
714 1 11 0.17810 -6.825 -4.609 -6.160 #H2
715 1 11 0.17810 -13.649 -2.216 -2.114 #H2
716 1 11 0.17810 -6.825 -9.040 -6.160 #H2
717 1 11 0.17810 -11.434 -13.649 -2.114 #H2
718 1 11 0.17810 -4.609 -6.825 -6.160 #H2
719 1 11 0.17810 -2.216 -13.649 -2.114 #H2
720 1 11 0.17810 -9.040 -6.825 -6.160 #H2
721 1 11 0.17810 -0.001 -11.434 -5.978 #H2
722 1 11 0.17810 6.824 -4.609 -1.932 #H2
723 1 11 0.17810 -0.001 -2.216 -5.978 #H2
724 1 11 0.17810 6.824 -9.040 -1.932 #H2
725 1 11 0.17810 11.433 -13.649 -5.978 #H2
726 1 11 0.17810 4.609 -6.825 -1.932 #H2
727 1 11 0.17810 2.215 -13.649 -5.978 #H2
728 1 11 0.17810 9.040 -6.825 -1.932 #H2
729 1 11 0.17810 -0.001 -11.434 -2.114 #H2
730 1 11 0.17810 6.824 -4.609 -6.160 #H2