ITEM: TIMESTEP
0
ITEM: NUMBER OF ATOMS
1235
ITEM: BOX BOUNDS pp pp pp
-13.335 13.335
-13.335 13.335
-19.021 19.021
ITEM: ATOMS x y z type mol 
-2.675 -8.702 -14.518 6 1 
-3.166 -9.905 -14.245 9 1 
-2.814 -11.058 -14.981 10 1 
-4.278 -12.826 -14.014 11 1 
-3.31 -12.36 -14.815 12 1 
-2.923 -12.969 -15.319 21 1 
1.774 -10.452 -19.021 1 1 
-0.234 -9.483 -17.249 3 1 
-1.286 -9.631 -16.22 5 1 
-1.739 -8.535 -15.527 7 1 
-1.832 -10.87 -15.944 8 1 
0.365 -10.504 -17.647 14 1 
0.002 -8.293 -17.643 16 1 
-1.523 -11.625 -16.434 19 1 
1.308 -9.488 -14.297 23 54 
1.342 -9.479 -14.234 24 54 
3.196 -8.866 -17.163 4 1 
4.041 -8.68 -15.935 6 1 
5.53 -8.371 -13.609 8 1 
4.554 -9.779 -15.287 9 1 
5.271 -9.666 -14.098 10 1 
4.448 -12.517 -14.104 13 1 
3.044 -10.008 -17.607 15 1 
4.417 -10.641 -15.662 20 1 
10.212 -12.847 -14.075 23 29 
10.232 -12.899 -14.121 24 29 
-8.864 -3.198 -17.163 4 1 
-8.678 -4.043 -15.935 6 1 
-8.369 -5.532 -13.609 8 1 
-9.777 -4.556 -15.287 9 1 
-9.664 -5.273 -14.098 10 1 
-12.515 -4.45 -14.103 13 1 
-10.006 -3.046 -17.608 15 1 
-10.639 -4.419 -15.662 20 1 
-11.698 -5.106 -18.947 22 37 
-10.807 -5.768 -18.604 23 37 
-10.863 -5.728 -18.624 24 37 
-5.909 -5.238 -13.667 3 1 
-3.119 -7.503 -13.722 4 1 
-7.26 -5.05 -14.271 5 1 
-7.395 -4.305 -15.442 7 1 
-4.92 -4.744 -14.266 16 1 
-2.697 -6.365 -14.124 17 1 
-7.804 -2.701 -17.629 17 1 
-6.628 -3.979 -15.898 18 1 
1.333 -7.858 -19.021 2 1 
-1.414 -7.667 -15.738 18 1 
5.236 -5.911 -13.667 3 1 
7.501 -3.121 -13.722 4 1 
5.049 -7.262 -14.271 5 1 
4.303 -7.397 -15.442 7 1 
4.742 -4.922 -14.267 16 1 
6.363 -2.699 -14.124 17 1 
2.699 -7.806 -17.629 17 1 
3.976 -6.63 -15.898 18 1 
8.7 -2.677 -14.518 6 1 
9.903 -3.168 -14.245 9 1 
11.056 -2.816 -14.981 10 1 
12.824 -4.28 -14.014 11 1 
12.358 -3.312 -14.815 12 1 
12.967 -2.925 -15.319 21 1 
-10.45 -1.776 -19.021 1 1 
-9.481 0.232 -17.25 3 1 
-9.629 1.283 -16.22 5 1 
-8.533 1.737 -15.527 7 1 
-10.868 1.83 -15.944 8 1 
-10.502 -0.367 -17.647 14 1 
-8.291 -0.004 -17.643 16 1 
-11.623 1.521 -16.434 19 1 
-13.277 0.164 -18.996 22 40 
-7.856 -1.335 -19.021 2 1 
-7.665 1.412 -15.738 18 1 
-2.993 2.526 -14.906 23 9 
-2.947 2.488 -14.946 24 9 
-2.288 1.895 -15.581 22 9 
-1.586 1.264 -16.259 23 9 
-1.628 1.303 -16.218 24 9 
2.514 -0.89 -13.641 22 39 
7.856 1.331 -19.021 2 1 
7.665 -1.416 -15.738 18 1 
3.027 -1.704 -14.293 23 39 
2.993 -1.654 -14.253 24 39 
10.45 1.772 -19.021 1 1 
9.481 -0.236 -17.25 3 1 
9.629 -1.287 -16.22 5 1 
8.533 -1.741 -15.527 7 1 
10.868 -1.834 -15.944 8 1 
10.502 0.363 -17.647 14 1 
8.291 0 -17.643 16 1 
11.623 -1.525 -16.434 19 1 
13.077 -0.881 -18.595 23 40 
13.097 -0.816 -18.619 24 40 
-8.7 2.673 -14.518 6 1 
-9.903 3.164 -14.245 9 1 
-11.056 2.812 -14.981 10 1 
-12.824 4.276 -14.014 11 1 
-12.358 3.308 -14.815 12 1 
-12.967 2.921 -15.319 21 1 
-5.236 5.907 -13.667 3 1 
-7.501 3.117 -13.722 4 1 
-5.049 7.258 -14.271 5 1 
-4.303 7.393 -15.442 7 1 
-4.742 4.918 -14.267 16 1 
-2.699 7.802 -17.629 17 1 
-6.363 2.695 -14.124 17 1 
-3.976 6.625 -15.898 18 1 
-1.333 7.854 -19.021 2 1 
1.414 7.663 -15.738 18 1 
0.169 4.097 -15.325 22 51 
-0.821 4.512 -15.773 23 51 
1.158 3.685 -14.875 23 51 
-0.759 4.488 -15.746 24 51 
1.097 3.709 -14.904 24 51 
5.909 5.234 -13.667 3 1 
3.119 7.499 -13.722 4 1 
7.26 5.047 -14.271 5 1 
7.395 4.301 -15.442 7 1 
4.92 4.74 -14.267 16 1 
7.804 2.697 -17.629 17 1 
2.697 6.361 -14.124 17 1 
6.627 3.975 -15.898 18 1 
8.864 3.194 -17.163 4 1 
8.678 4.039 -15.935 6 1 
8.368 5.528 -13.609 8 1 
9.777 4.552 -15.287 9 1 
9.664 5.269 -14.098 10 1 
12.515 4.446 -14.104 13 1 
10.006 3.042 -17.608 15 1 
10.639 4.415 -15.662 20 1 
-3.196 8.862 -17.163 4 1 
-4.041 8.676 -15.935 6 1 
-5.53 8.367 -13.609 8 1 
-4.554 9.775 -15.287 9 1 
-5.271 9.662 -14.098 10 1 
-4.448 12.513 -14.104 13 1 
-3.044 10.004 -17.608 15 1 
-4.416 10.637 -15.662 20 1 
-1.774 10.448 -19.021 1 1 
0.234 9.479 -17.25 3 1 
1.285 9.627 -16.22 5 1 
1.739 8.531 -15.527 7 1 
1.832 10.866 -15.944 8 1 
-0.365 10.5 -17.647 14 1 
-0.002 8.289 -17.643 16 1 
1.523 11.621 -16.434 19 1 
-0.648 12.87 -14.031 23 33 
-0.636 12.821 -13.98 24 33 
0.046 13.215 -18.924 22 41 
-1.088 13.047 -18.735 23 41 
-1.018 13.056 -18.748 24 41 
2.675 8.698 -14.518 6 1 
3.166 9.901 -14.245 9 1 
2.814 11.054 -14.981 10 1 
4.278 12.822 -14.014 11 1 
3.31 12.356 -14.815 12 1 
2.923 12.965 -15.319 21 1 
6.769 10.71 -15.007 22 6 
7.587 10.718 -14.183 23 6 
5.951 10.701 -15.834 23 6 
7.537 10.717 -14.233 24 6 
6.002 10.701 -15.784 24 6 
10.497 12.977 -14.819 22 29 
10.78 12.131 -15.566 23 29 
10.763 12.184 -15.521 24 29 
-8.388 -11.216 -8.488 5 1 
-8.79 -8.889 -8.364 14 1 
-7.691 -11.033 -9.682 8 1 
-7.097 -12.112 -10.303 10 1 
-5.814 -12.641 -12.36 11 1 
-6.406 -11.817 -11.5 12 1 
-4.949 -12.035 -13.184 13 1 
-7.625 -10.166 -10.066 19 1 
-3.782 -9.992 -13.527 20 1 
-6.361 -10.963 -11.705 21 1 
-3.967 -9.56 -10.505 22 27 
-4.888 -8.851 -10.45 23 27 
-3.049 -10.27 -10.562 23 27 
-4.832 -8.895 -10.453 24 27 
-3.105 -10.225 -10.556 24 27 
1.925 -12.687 -11.62 23 52 
1.918 -12.729 -11.562 24 52 
1.847 -9.362 -13.275 22 54 
2.385 -9.238 -12.251 23 54 
2.352 -9.247 -12.314 24 54 
7.818 -13.139 -8.532 6 1 
7.146 -13.303 -9.695 9 1 
5.435 -12.033 -13.289 11 1 
5.759 -10.728 -13.332 12 1 
6.131 -12.739 -12.404 13 1 
7.126 -10.897 -8.304 15 1 
6.041 -8.259 -12.816 19 1 
6.708 -12.564 -10.096 20 1 
6.398 -10.502 -12.774 21 1 
4.856 -9.172 -10.005 22 34 
5.413 -10.009 -10.589 23 34 
4.301 -8.337 -9.418 23 34 
5.378 -9.958 -10.553 24 34 
4.334 -8.388 -9.456 24 34 
11.214 -8.39 -8.488 5 1 
8.887 -8.792 -8.365 14 1 
-13.137 -7.82 -8.532 6 1 
-13.301 -7.148 -9.695 9 1 
-12.031 -5.437 -13.289 11 1 
-10.726 -5.761 -13.332 12 1 
-12.737 -6.133 -12.404 13 1 
-10.895 -7.128 -8.304 15 1 
-8.257 -6.043 -12.816 19 1 
-12.562 -6.709 -10.096 20 1 
-10.5 -6.4 -12.774 21 1 
-10.258 -3.862 -10.2 22 22 
-10.818 -4.868 -10.039 23 22 
-9.699 -2.855 -10.357 23 22 
-10.784 -4.806 -10.049 24 22 
-9.734 -2.917 -10.35 24 22 
-4.243 -6.173 -11.516 1 1 
-3.178 -4.65 -13.39 2 1 
-4.4 -3.353 -11.231 3 1 
-4.545 -4.45 -10.656 14 1 
-5.856 -5.876 -12.584 14 1 
-3.803 -7.686 -12.682 15 1 
-3.853 -3.138 -12.369 16 1 
-5.71 -3.173 -8.955 19 1 
-1.54 -5.487 -11.176 4 1 
2.121 -4.949 -10.533 5 1 
-0.198 -5.519 -10.489 6 1 
0.897 -4.871 -11.123 7 1 
2.304 -5.646 -9.339 8 1 
-0.034 -6.191 -9.326 9 1 
1.226 -6.24 -8.717 10 1 
-2.44 -6.211 -10.717 15 1 
-1.637 -4.737 -12.204 17 1 
0.776 -4.397 -11.937 18 1 
-0.773 -6.629 -8.924 20 1 
6.171 -4.245 -11.516 1 1 
4.648 -3.18 -13.39 2 1 
3.351 -4.402 -11.231 3 1 
5.874 -5.858 -12.585 14 1 
4.448 -4.547 -10.656 14 1 
7.684 -3.805 -12.682 15 1 
3.136 -3.855 -12.37 16 1 
3.171 -5.712 -8.955 19 1 
11.031 -7.693 -9.682 8 1 
12.11 -7.099 -10.304 10 1 
12.639 -5.816 -12.36 11 1 
11.815 -6.408 -11.5 12 1 
12.033 -4.951 -13.184 13 1 
10.164 -7.627 -10.066 19 1 
9.991 -3.784 -13.528 20 1 
10.961 -6.363 -11.705 21 1 
-8.934 1.214 -11.046 22 20 
-9.467 1.834 -10.219 23 20 
-8.399 0.596 -11.871 23 20 
-9.434 1.797 -10.27 24 20 
-8.434 0.634 -11.821 24 20 
-9.037 -1.591 -13.234 22 30 
-10.086 -1.145 -13.01 23 30 
-8.05 -2.01 -13.441 24 30 
-10.022 -1.174 -13.025 24 30 
-5.485 1.538 -11.176 4 1 
-4.947 -2.123 -10.533 5 1 
-5.517 0.196 -10.489 6 1 
-4.869 -0.899 -11.123 7 1 
-5.644 -2.306 -9.339 8 1 
-6.189 0.032 -9.326 9 1 
-6.238 -1.227 -8.717 10 1 
-6.208 2.438 -10.717 15 1 
-4.735 1.635 -12.204 17 1 
-4.395 -0.778 -11.937 18 1 
-6.627 0.771 -8.924 20 1 
-7.986 -2.036 -13.456 23 30 
2.004 -0.074 -12.988 23 39 
2.035 -0.124 -13.029 24 39 
5.485 -1.542 -11.176 4 1 
4.947 2.119 -10.533 5 1 
5.517 -0.2 -10.489 6 1 
4.869 0.895 -11.123 7 1 
5.644 2.302 -9.339 8 1 
6.189 -0.036 -9.326 9 1 
6.238 1.223 -8.717 10 1 
6.209 -2.442 -10.717 15 1 
4.735 -1.639 -12.204 17 1 
4.395 0.774 -11.937 18 1 
6.627 -0.775 -8.925 20 1 
-11.031 7.689 -9.682 8 1 
-12.11 7.095 -10.304 10 1 
-12.639 5.812 -12.36 11 1 
-11.815 6.404 -11.5 12 1 
-12.033 4.947 -13.184 13 1 
-10.164 7.623 -10.066 19 1 
-9.991 3.78 -13.528 20 1 
-10.961 6.359 -11.705 21 1 
-6.171 4.241 -11.516 1 1 
-4.648 3.176 -13.39 2 1 
-3.351 4.398 -11.231 3 1 
-5.874 5.854 -12.584 14 1 
-4.448 4.543 -10.656 14 1 
-7.684 3.801 -12.682 15 1 
-3.136 3.851 -12.37 16 1 
-3.171 5.708 -8.955 19 1 
1.54 5.483 -11.176 4 1 
-2.121 4.945 -10.533 5 1 
0.198 5.515 -10.489 6 1 
-0.897 4.867 -11.123 7 1 
-2.304 5.642 -9.339 8 1 
0.034 6.187 -9.326 9 1 
-1.225 6.236 -8.717 10 1 
2.44 6.206 -10.717 15 1 
1.637 4.733 -12.204 17 1 
-0.776 4.393 -11.937 18 1 
0.774 6.625 -8.925 20 1 
-0.11 7.927 -12.918 23 53 
-0.123 7.954 -12.852 24 53 
4.243 6.169 -11.516 1 1 
3.178 4.646 -13.39 2 1 
4.4 3.349 -11.231 3 1 
5.856 5.872 -12.585 14 1 
4.545 4.446 -10.656 14 1 
3.804 7.682 -12.682 15 1 
3.853 3.134 -12.37 16 1 
5.71 3.169 -8.955 19 1 
5.261 7.599 -8.745 23 44 
5.249 7.663 -8.775 24 44 
13.137 7.816 -8.532 6 1 
13.301 7.144 -9.695 9 1 
12.031 5.433 -13.289 11 1 
10.726 5.757 -13.332 12 1 
12.737 6.129 -12.404 13 1 
10.895 7.124 -8.304 15 1 
8.257 6.039 -12.816 19 1 
12.562 6.705 -10.096 20 1 
10.5 6.396 -12.774 21 1 
-11.214 8.386 -8.488 5 1 
-8.887 8.788 -8.365 14 1 
-7.818 13.135 -8.532 6 1 
-7.146 13.299 -9.695 9 1 
-5.435 12.029 -13.289 11 1 
-5.759 10.724 -13.332 12 1 
-6.131 12.735 -12.404 13 1 
-7.126 10.893 -8.304 15 1 
-6.041 8.255 -12.816 19 1 
-6.707 12.56 -10.096 20 1 
-6.398 10.498 -12.774 21 1 
-3.523 13.094 -8.84 22 50 
-3.178 12.41 -9.716 23 50 
-3.2 12.452 -9.662 24 50 
-3.369 9.548 -10.905 22 55 
-3.669 9.399 -9.791 23 55 
-3.071 9.695 -12.019 23 55 
-3.651 9.407 -9.861 24 55 
-3.088 9.686 -11.95 24 55 
-0.432 12.087 -13.201 22 33 
-0.213 11.305 -12.368 23 33 
-0.228 11.353 -12.419 24 33 
1.804 13.317 -10.675 22 52 
1.68 12.652 -9.729 23 52 
1.687 12.693 -9.787 24 52 
-0.318 8.355 -11.856 22 53 
-0.528 8.785 -10.797 23 53 
-0.514 8.758 -10.862 24 53 
7.691 11.029 -9.682 8 1 
7.097 12.108 -10.304 10 1 
5.814 12.637 -12.36 11 1 
6.406 11.813 -11.5 12 1 
4.949 12.031 -13.184 13 1 
7.625 10.162 -10.066 19 1 
3.782 9.989 -13.528 20 1 
6.361 10.959 -11.705 21 1 
5.058 8.648 -9.205 22 44 
4.855 9.695 -9.667 23 44 
4.868 9.631 -9.637 24 44 
8.388 11.212 -8.488 5 1 
8.791 8.885 -8.365 14 1 
-10.157 -8.689 -5.631 2 1 
-8.935 -9.986 -7.789 3 1 
-8.466 -12.44 -7.897 7 1 
-9.482 -10.201 -6.651 16 1 
-8.415 -8.595 -4.754 16 1 
-11.698 -8.602 -6.816 17 1 
-8.94 -12.561 -7.083 18 1 
-7.426 -8.101 -5.354 3 1 
-6.075 -8.288 -4.75 5 1 
-4.657 -9.296 -3.086 6 1 
-5.94 -9.034 -3.579 7 1 
-3.558 -8.783 -3.733 9 1 
-3.671 -8.066 -4.923 10 1 
-6.707 -9.361 -3.123 18 1 
-2.696 -8.92 -3.359 20 1 
-3.868 -12.896 -7.964 23 50 
-3.847 -12.937 -8.019 24 50 
2.467 -11.505 -3.077 8 1 
2.279 -10.523 -4.04 10 1 
0.511 -9.059 -5.007 11 1 
0.977 -10.027 -4.205 12 1 
1.302 -8.388 -5.836 13 1 
-0.82 -8.889 -4.917 13 1 
0.368 -10.414 -3.701 21 1 
7.164 -9.094 -7.505 1 1 
7.85 -11.797 -7.845 4 1 
5.834 -10.218 -5.299 4 1 
3.706 -12.052 -2.801 5 1 
4.635 -10.662 -4.503 6 1 
4.802 -11.598 -3.494 7 1 
3.432 -10.171 -4.776 9 1 
5.651 -9.534 -6.339 15 1 
6.972 -10.64 -4.897 17 1 
5.67 -11.923 -3.283 18 1 
3.344 -9.555 -5.493 20 1 
8.687 -10.159 -5.631 2 1 
9.984 -8.937 -7.789 3 1 
12.438 -8.468 -7.897 7 1 
10.199 -9.484 -6.651 16 1 
8.593 -8.417 -4.754 16 1 
8.6 -11.7 -6.817 17 1 
12.559 -8.942 -7.083 18 1 
8.681 -13.079 -3.235 22 13 
9.102 -12.013 -3.431 23 13 
9.075 -12.078 -3.419 24 13 
-9.092 -7.166 -7.505 1 1 
-11.795 -7.852 -7.844 4 1 
-10.216 -5.836 -5.299 4 1 
-12.049 -3.708 -2.8 5 1 
-10.66 -4.637 -4.503 6 1 
-11.596 -4.804 -3.494 7 1 
-10.169 -3.434 -4.776 9 1 
-9.532 -5.653 -6.339 15 1 
-10.638 -6.974 -4.897 17 1 
-11.921 -5.672 -3.283 18 1 
-9.553 -3.346 -5.493 20 1 
-4.966 -7.807 -5.411 8 1 
-7.479 -7.463 -6.436 14 1 
-5.078 -7.296 -6.205 19 1 
-2.835 -6.939 -6.246 21 1 
0.696 -7.523 -6.661 11 1 
-1.304 -7.902 -5.732 11 1 
1.52 -6.931 -7.521 12 1 
-2.609 -7.578 -5.689 12 1 
-0.598 -7.206 -6.617 13 1 
2.374 -6.976 -7.315 21 1 
7.805 -4.968 -5.411 8 1 
7.461 -7.481 -6.436 14 1 
7.294 -5.08 -6.205 19 1 
6.937 -2.837 -6.246 21 1 
8.099 -7.428 -5.354 3 1 
8.286 -6.077 -4.75 5 1 
9.294 -4.659 -3.086 6 1 
9.032 -5.942 -3.579 7 1 
8.781 -3.56 -3.733 9 1 
8.064 -3.673 -4.923 10 1 
9.359 -6.71 -3.123 18 1 
8.918 -2.698 -3.359 20 1 
-11.503 -2.469 -3.077 8 1 
-10.521 -2.281 -4.039 10 1 
-9.057 -0.513 -5.007 11 1 
-10.025 -0.979 -4.205 12 1 
-8.887 0.818 -4.917 13 1 
-8.385 -1.304 -5.836 13 1 
-10.412 -0.37 -3.701 21 1 
-12.337 1.577 -4.528 22 8 
-12.553 0.436 -4.569 23 8 
-12.134 2.649 -4.486 24 8 
-12.539 0.507 -4.568 24 8 
-7.521 -0.698 -6.661 11 1 
-7.9 1.302 -5.732 11 1 
-6.929 -1.522 -7.521 12 1 
-7.576 2.607 -5.689 12 1 
-7.204 0.596 -6.616 13 1 
-6.974 -2.376 -7.315 21 1 
7.521 0.694 -6.661 11 1 
7.9 -1.306 -5.732 11 1 
6.929 1.518 -7.521 12 1 
7.576 -2.611 -5.689 12 1 
7.204 -0.6 -6.617 13 1 
6.974 2.372 -7.315 21 1 
4.462 -0.34 -6.404 22 47 
4.706 0.622 -5.797 23 47 
4.218 -1.302 -7.009 23 47 
4.692 0.561 -5.834 24 47 
4.233 -1.242 -6.973 24 47 
11.503 2.465 -3.077 8 1 
10.521 2.277 -4.04 10 1 
9.057 0.509 -5.007 11 1 
10.025 0.975 -4.206 12 1 
8.887 -0.822 -4.917 13 1 
8.386 1.3 -5.836 13 1 
10.412 0.366 -3.701 21 1 
-8.099 7.424 -5.354 3 1 
-8.286 6.073 -4.75 5 1 
-9.294 4.655 -3.085 6 1 
-9.032 5.938 -3.578 7 1 
-8.78 3.556 -3.733 9 1 
-8.064 3.669 -4.923 10 1 
-9.358 6.706 -3.123 18 1 
-8.918 2.694 -3.359 20 1 
-12.122 2.719 -4.484 23 8 
-11.826 5.764 -6.277 22 12 
-10.725 6.07 -6.496 23 12 
-12.924 5.457 -6.056 23 12 
-10.792 6.05 -6.483 24 12 
-12.857 5.476 -6.072 24 12 
-7.805 4.964 -5.411 8 1 
-7.461 7.477 -6.436 14 1 
-7.294 5.076 -6.205 19 1 
-6.937 2.833 -6.246 21 1 
-4.921 6.76 -4.837 22 7 
-5.222 7.431 -3.938 23 7 
-4.618 6.09 -5.738 23 7 
-5.203 7.389 -3.992 24 7 
-4.635 6.132 -5.683 24 7 
1.304 7.898 -5.732 11 1 
-0.696 7.519 -6.661 11 1 
2.609 7.574 -5.689 12 1 
-1.52 6.927 -7.521 12 1 
0.598 7.202 -6.617 13 1 
-2.374 6.972 -7.315 21 1 
4.966 7.803 -5.411 8 1 
7.479 7.459 -6.436 14 1 
5.078 7.292 -6.205 19 1 
2.835 6.935 -6.246 21 1 
6.434 4.41 -4.815 22 25 
6.781 4.635 -3.729 23 25 
6.086 4.186 -5.901 23 25 
6.759 4.62 -3.795 24 25 
6.109 4.198 -5.834 24 25 
9.092 7.162 -7.505 1 1 
10.216 5.832 -5.299 4 1 
11.795 7.848 -7.845 4 1 
12.05 3.704 -2.801 5 1 
10.66 4.633 -4.503 6 1 
11.596 4.8 -3.494 7 1 
10.169 3.43 -4.776 9 1 
9.532 5.649 -6.339 15 1 
10.638 6.97 -4.897 17 1 
11.922 5.668 -3.283 18 1 
9.553 3.342 -5.493 20 1 
-8.687 10.155 -5.631 2 1 
-9.984 8.933 -7.789 3 1 
-12.438 8.464 -7.897 7 1 
-8.593 8.413 -4.754 16 1 
-10.199 9.48 -6.651 16 1 
-8.6 11.696 -6.817 17 1 
-12.559 8.938 -7.083 18 1 
-8.933 12.273 -3.108 22 4 
-9.529 11.646 -3.882 23 4 
-9.493 11.683 -3.834 24 4 
-7.163 9.09 -7.505 1 1 
-5.834 10.214 -5.299 4 1 
-7.85 11.793 -7.844 4 1 
-3.706 12.047 -2.801 5 1 
-4.635 10.658 -4.503 6 1 
-4.802 11.594 -3.494 7 1 
-3.432 10.167 -4.776 9 1 
-5.65 9.53 -6.339 15 1 
-6.972 10.636 -4.897 17 1 
-5.67 11.919 -3.283 18 1 
-3.344 9.551 -5.493 20 1 
-2.467 11.501 -3.077 8 1 
-2.279 10.519 -4.04 10 1 
-0.511 9.055 -5.007 11 1 
-0.977 10.023 -4.205 12 1 
-1.302 8.384 -5.836 13 1 
0.82 8.885 -4.917 13 1 
-0.368 10.41 -3.701 21 1 
7.426 8.097 -5.354 3 1 
6.075 8.284 -4.75 5 1 
4.657 9.292 -3.086 6 1 
5.94 9.03 -3.579 7 1 
3.558 8.778 -3.733 9 1 
3.671 8.062 -4.923 10 1 
6.708 9.356 -3.123 18 1 
2.696 8.916 -3.359 20 1 
10.157 8.685 -5.631 2 1 
8.935 9.982 -7.789 3 1 
8.466 12.436 -7.897 7 1 
9.482 10.197 -6.651 16 1 
8.415 8.591 -4.754 16 1 
11.698 8.598 -6.817 17 1 
8.94 12.557 -7.083 18 1 
8.259 12.525 -3.042 23 13 
8.286 12.591 -3.052 24 13 
-2.885 -11.563 0 1 1 
-5.479 -12.004 -0 2 1 
-4.471 -10.141 -1.858 4 1 
-4.471 -10.141 1.858 4 1 
-2.833 -12.972 1.374 14 1 
-2.833 -12.972 -1.374 14 1 
-3.329 -10.293 -1.413 15 1 
-3.329 -10.293 1.413 15 1 
-5.044 -13.335 1.378 16 1 
-5.044 -13.335 -1.378 16 1 
-5.531 -10.638 -1.392 17 1 
-5.531 -10.638 1.392 17 1 
1.712 -11.814 2.587 19 1 
1.712 -11.814 -2.587 19 1 
0.432 -12.373 0.357 23 46 
0.427 -12.445 0.363 24 46 
3.854 -13.103 -1.771 3 1 
3.854 -13.103 1.771 3 1 
-13.101 -3.856 -1.771 3 1 
-13.101 -3.856 1.771 3 1 
11.561 -2.887 0 1 1 
12.002 -5.481 0 2 1 
10.139 -4.473 -1.858 4 1 
10.139 -4.473 1.858 4 1 
12.97 -2.835 1.374 14 1 
12.97 -2.835 -1.374 14 1 
10.291 -3.331 -1.413 15 1 
10.291 -3.331 1.413 15 1 
13.333 -5.046 1.378 16 1 
13.333 -5.046 -1.378 16 1 
10.636 -5.533 1.392 17 1 
10.636 -5.533 -1.392 17 1 
-11.812 -1.714 2.587 19 1 
-11.812 -1.714 -2.587 19 1 
-13.331 0.182 -0.008 22 56 
-12.196 0.005 0.168 23 56 
-12.267 0.016 0.159 24 56 
11.812 1.71 -2.587 19 1 
11.812 1.71 2.587 19 1 
12.203 0.358 -0.187 23 56 
12.273 0.347 -0.177 24 56 
-11.56 2.883 0 1 1 
-12.002 5.477 0 2 1 
-10.139 4.469 -1.858 4 1 
-10.139 4.469 1.858 4 1 
-12.97 2.831 1.374 14 1 
-12.97 2.831 -1.373 14 1 
-10.29 3.327 -1.413 15 1 
-10.29 3.327 1.414 15 1 
-13.332 5.042 1.378 16 1 
-13.332 5.042 -1.377 16 1 
-10.636 5.529 -1.391 17 1 
-10.636 5.528 1.392 17 1 
-12.626 7.543 -0.735 23 43 
-12.678 7.593 -0.742 24 43 
13.101 3.852 -1.771 3 1 
13.101 3.852 1.771 3 1 
9.305 7.153 -0.2 22 45 
9.44 6.666 0.848 23 45 
9.167 7.638 -1.247 23 45 
9.431 6.695 0.783 24 45 
9.177 7.608 -1.182 24 45 
-8.337 12.902 -2.332 23 4 
-8.374 12.864 -2.38 24 4 
-9.549 12.182 2.557 22 38 
-9.485 13.166 1.942 23 38 
-9.487 13.105 1.979 24 38 
-3.854 13.099 -1.771 3 1 
-3.854 13.099 1.771 3 1 
-1.712 11.81 2.587 19 1 
-1.712 11.81 -2.587 19 1 
0.351 13.143 0.465 22 46 
0.268 11.987 0.576 23 46 
0.272 12.059 0.57 24 46 
2.885 11.559 0 1 1 
5.479 12 0 2 1 
4.471 10.137 -1.858 4 1 
4.471 10.137 1.858 4 1 
2.833 12.968 1.374 14 1 
2.833 12.968 -1.374 14 1 
3.329 10.289 -1.413 15 1 
3.329 10.289 1.413 15 1 
5.044 13.331 1.378 16 1 
5.044 13.331 -1.378 16 1 
5.531 10.634 -1.392 17 1 
5.531 10.634 1.392 17 1 
13.227 8.363 -0.842 22 43 
12.412 9.186 -0.949 23 43 
12.463 9.136 -0.943 24 43 
-10.157 -8.689 5.631 2 1 
-8.935 -9.986 7.789 3 1 
-8.466 -12.44 7.897 7 1 
-8.415 -8.595 4.754 16 1 
-9.482 -10.201 6.651 16 1 
-11.698 -8.602 6.817 17 1 
-8.94 -12.561 7.083 18 1 
-7.426 -8.101 5.354 3 1 
-6.075 -8.288 4.75 5 1 
-4.657 -9.296 3.086 6 1 
-5.94 -9.034 3.579 7 1 
-3.558 -8.783 3.733 9 1 
-3.671 -8.066 4.923 10 1 
-6.707 -9.361 3.123 18 1 
-2.696 -8.92 3.359 20 1 
-3.118 -11.667 5.424 22 2 
-3.821 -12 4.562 23 2 
-3.779 -11.978 4.615 24 2 
2.467 -11.505 3.077 8 1 
2.279 -10.523 4.04 10 1 
0.511 -9.059 5.007 11 1 
0.977 -10.027 4.206 12 1 
-0.82 -8.889 4.917 13 1 
1.302 -8.388 5.836 13 1 
0.368 -10.414 3.701 21 1 
-2.413 -11.333 6.287 23 2 
-2.455 -11.354 6.233 24 2 
0.858 -12.857 6.607 22 11 
0.027 -12.566 5.848 23 11 
1.691 -13.148 7.364 23 11 
0.077 -12.585 5.895 24 11 
1.638 -13.13 7.319 24 11 
7.164 -9.094 7.505 1 1 
5.834 -10.219 5.299 4 1 
7.85 -11.797 7.845 4 1 
3.706 -12.052 2.801 5 1 
4.635 -10.662 4.503 6 1 
4.802 -11.598 3.494 7 1 
3.432 -10.171 4.776 9 1 
5.651 -9.534 6.339 15 1 
6.972 -10.64 4.897 17 1 
5.67 -11.924 3.283 18 1 
3.344 -9.555 5.493 20 1 
8.688 -10.159 5.631 2 1 
9.984 -8.937 7.789 3 1 
12.438 -8.468 7.897 7 1 
10.199 -9.484 6.651 16 1 
8.593 -8.417 4.754 16 1 
8.6 -11.7 6.817 17 1 
12.559 -8.942 7.083 18 1 
9.237 -12.948 4.063 22 15 
9.499 -11.815 4.039 23 15 
9.483 -11.885 4.041 24 15 
-9.092 -7.166 7.505 1 1 
-10.216 -5.836 5.299 4 1 
-11.795 -7.852 7.845 4 1 
-12.05 -3.708 2.801 5 1 
-10.66 -4.637 4.503 6 1 
-11.596 -4.804 3.494 7 1 
-10.169 -3.434 4.776 9 1 
-9.531 -5.652 6.339 15 1 
-10.638 -6.974 4.897 17 1 
-11.921 -5.672 3.283 18 1 
-9.553 -3.346 5.493 20 1 
-4.966 -7.807 5.411 8 1 
-7.479 -7.463 6.436 14 1 
-5.078 -7.296 6.205 19 1 
-2.835 -6.939 6.246 21 1 
-2.745 -4.36 6.956 23 36 
-2.737 -4.313 7.008 24 36 
-1.304 -7.902 5.732 11 1 
0.696 -7.523 6.661 11 1 
-2.609 -7.578 5.689 12 1 
1.52 -6.931 7.521 12 1 
-0.598 -7.206 6.617 13 1 
2.374 -6.976 7.315 21 1 
-2.626 -3.581 7.811 22 36 
7.805 -4.968 5.411 8 1 
7.461 -7.481 6.436 14 1 
7.294 -5.08 6.205 19 1 
6.937 -2.837 6.246 21 1 
8.099 -7.428 5.354 3 1 
8.286 -6.077 4.75 5 1 
9.294 -4.659 3.086 6 1 
9.032 -5.942 3.579 7 1 
8.781 -3.56 3.733 9 1 
8.064 -3.673 4.923 10 1 
9.359 -6.71 3.123 18 1 
8.918 -2.698 3.359 20 1 
11.737 -4.037 5.584 22 10 
11.496 -5.161 5.405 23 10 
11.976 -2.915 5.766 23 10 
11.51 -5.091 5.415 24 10 
11.962 -2.984 5.752 24 10 
-11.503 -2.469 3.077 8 1 
-10.521 -2.281 4.04 10 1 
-9.057 -0.513 5.007 11 1 
-10.025 -0.979 4.206 12 1 
-8.887 0.818 4.917 13 1 
-8.385 -1.304 5.836 13 1 
-10.412 -0.37 3.701 21 1 
-7.899 1.302 5.732 11 1 
-7.521 -0.698 6.661 11 1 
-7.576 2.606 5.689 12 1 
-6.929 -1.523 7.521 12 1 
-7.204 0.596 6.617 13 1 
-6.974 -2.376 7.315 21 1 
7.9 -1.306 5.732 11 1 
7.521 0.694 6.661 11 1 
6.929 1.518 7.521 12 1 
7.576 -2.611 5.689 12 1 
7.204 -0.6 6.617 13 1 
6.974 2.372 7.315 21 1 
11.503 2.465 3.077 8 1 
10.521 2.277 4.04 10 1 
9.057 0.509 5.007 11 1 
10.025 0.975 4.205 12 1 
8.887 -0.822 4.917 13 1 
8.386 1.3 5.836 13 1 
10.412 0.366 3.701 21 1 
11.16 -0.283 7.225 22 26 
11.822 0.549 6.755 23 26 
10.496 -1.114 7.693 23 26 
11.781 0.499 6.784 24 26 
10.538 -1.063 7.666 24 26 
-8.099 7.424 5.354 3 1 
-8.286 6.072 4.75 5 1 
-9.293 4.655 3.086 6 1 
-9.032 5.938 3.579 7 1 
-8.78 3.556 3.734 9 1 
-8.063 3.669 4.923 10 1 
-9.359 6.705 3.124 18 1 
-8.918 2.694 3.359 20 1 
-12.331 5.314 6.147 22 28 
-12.778 6.206 5.55 23 28 
-11.886 4.423 6.746 23 28 
-12.751 6.152 5.587 24 28 
-11.912 4.479 6.709 24 28 
-7.805 4.965 5.412 8 1 
-7.46 7.477 6.436 14 1 
-7.294 5.076 6.205 19 1 
-6.937 2.833 6.246 21 1 
1.304 7.898 5.732 11 1 
-0.696 7.519 6.661 11 1 
2.609 7.574 5.689 12 1 
-1.52 6.927 7.521 12 1 
0.598 7.202 6.617 13 1 
-2.374 6.972 7.315 21 1 
4.967 7.803 5.411 8 1 
7.479 7.459 6.436 14 1 
5.078 7.292 6.205 19 1 
2.835 6.935 6.246 21 1 
9.092 7.162 7.505 1 1 
10.217 5.832 5.299 4 1 
11.795 7.848 7.845 4 1 
12.05 3.704 2.801 5 1 
10.66 4.633 4.503 6 1 
11.596 4.8 3.494 7 1 
10.169 3.43 4.776 9 1 
9.532 5.649 6.339 15 1 
10.638 6.97 4.897 17 1 
11.922 5.668 3.283 18 1 
9.553 3.342 5.493 20 1 
-8.687 10.155 5.631 2 1 
-9.984 8.933 7.79 3 1 
-12.438 8.464 7.898 7 1 
-8.593 8.413 4.755 16 1 
-10.2 9.48 6.652 16 1 
-8.6 11.696 6.817 17 1 
-12.558 8.938 7.083 18 1 
-9.616 11.198 3.172 23 38 
-9.613 11.257 3.133 24 38 
-7.163 9.09 7.505 1 1 
-5.834 10.215 5.299 4 1 
-7.85 11.793 7.845 4 1 
-3.706 12.048 2.801 5 1 
-4.635 10.658 4.503 6 1 
-4.802 11.594 3.494 7 1 
-3.432 10.167 4.776 9 1 
-5.651 9.529 6.338 15 1 
-6.972 10.636 4.897 17 1 
-5.67 11.919 3.283 18 1 
-3.344 9.551 5.493 20 1 
-4.861 12.951 7.814 23 14 
-4.815 12.9 7.836 24 14 
-2.467 11.501 3.077 8 1 
-2.279 10.519 4.04 10 1 
-0.511 9.055 5.007 11 1 
-0.977 10.023 4.205 12 1 
-1.302 8.384 5.836 13 1 
0.82 8.885 4.917 13 1 
-0.368 10.41 3.701 21 1 
7.426 8.097 5.354 3 1 
6.075 8.284 4.75 5 1 
4.657 9.292 3.086 6 1 
5.94 9.03 3.579 7 1 
3.558 8.779 3.733 9 1 
3.671 8.062 4.923 10 1 
6.708 9.356 3.123 18 1 
2.696 8.916 3.359 20 1 
10.156 8.686 5.631 2 1 
8.935 9.982 7.789 3 1 
8.466 12.436 7.897 7 1 
9.482 10.197 6.651 16 1 
8.415 8.591 4.754 16 1 
11.698 8.598 6.817 17 1 
8.94 12.557 7.083 18 1 
8.973 12.591 4.088 23 15 
8.992 12.66 4.086 24 15 
-8.388 -11.216 8.488 5 1 
-8.79 -8.889 8.365 14 1 
-7.691 -11.033 9.682 8 1 
-7.097 -12.111 10.304 10 1 
-5.814 -12.641 12.36 11 1 
-6.406 -11.816 11.5 12 1 
-4.95 -12.035 13.184 13 1 
-7.625 -10.166 10.066 19 1 
-3.782 -9.993 13.528 20 1 
-6.361 -10.963 11.705 21 1 
-3.471 -9.394 8.196 23 49 
-3.407 -9.38 8.226 24 49 
2.277 -8.757 12.055 22 21 
1.78 -9.263 11.135 23 21 
1.809 -9.233 11.193 24 21 
-2.433 -9.162 8.667 22 49 
-1.396 -8.933 9.139 23 49 
-1.46 -8.946 9.11 24 49 
7.818 -13.139 8.532 6 1 
7.146 -13.303 9.695 9 1 
5.435 -12.033 13.289 11 1 
5.759 -10.728 13.332 12 1 
6.131 -12.739 12.404 13 1 
7.127 -10.897 8.304 15 1 
6.041 -8.259 12.816 19 1 
6.708 -12.564 10.096 20 1 
6.398 -10.502 12.774 21 1 
4.078 -10.659 8.978 22 17 
4.217 -11.813 8.944 23 17 
3.937 -9.506 9.01 23 17 
4.209 -11.742 8.946 24 17 
3.948 -9.577 9.009 24 17 
2.774 -8.248 12.975 23 21 
2.743 -8.279 12.919 24 21 
11.214 -8.39 8.488 5 1 
8.887 -8.792 8.365 14 1 
-13.137 -7.82 8.532 6 1 
-13.301 -7.148 9.695 9 1 
-12.031 -5.437 13.289 11 1 
-10.726 -5.761 13.332 12 1 
-12.737 -6.133 12.404 13 1 
-10.895 -7.128 8.304 15 1 
-8.257 -6.043 12.816 19 1 
-12.562 -6.709 10.096 20 1 
-10.5 -6.4 12.774 21 1 
-4.243 -6.173 11.516 1 1 
-3.178 -4.65 13.39 2 1 
-4.4 -3.353 11.231 3 1 
-5.856 -5.876 12.585 14 1 
-4.545 -4.45 10.656 14 1 
-3.803 -7.686 12.682 15 1 
-3.853 -3.138 12.37 16 1 
-5.71 -3.173 8.955 19 1 
-6.38 -6.893 9.456 22 24 
-5.391 -7.413 9.778 23 24 
-7.369 -6.376 9.135 23 24 
-5.451 -7.382 9.758 24 24 
-7.307 -6.406 9.153 24 24 
-1.54 -5.487 11.176 4 1 
2.121 -4.949 10.533 5 1 
-0.198 -5.519 10.489 6 1 
0.897 -4.871 11.123 7 1 
2.304 -5.646 9.339 8 1 
-0.034 -6.191 9.326 9 1 
1.226 -6.24 8.717 10 1 
-2.44 -6.211 10.717 15 1 
-1.637 -4.737 12.204 17 1 
0.776 -4.397 11.937 18 1 
-0.773 -6.63 8.925 20 1 
-2.506 -2.801 8.664 23 36 
-2.514 -2.851 8.613 24 36 
6.171 -4.245 11.516 1 1 
4.648 -3.18 13.39 2 1 
3.351 -4.402 11.231 3 1 
5.874 -5.858 12.585 14 1 
4.448 -4.547 10.656 14 1 
7.684 -3.805 12.682 15 1 
3.136 -3.855 12.37 16 1 
3.171 -5.712 8.955 19 1 
11.031 -7.693 9.682 8 1 
12.11 -7.099 10.304 10 1 
12.639 -5.816 12.36 11 1 
11.815 -6.408 11.5 12 1 
12.033 -4.951 13.184 13 1 
10.164 -7.627 10.066 19 1 
9.991 -3.784 13.528 20 1 
10.961 -6.363 11.705 21 1 
-11.997 -1.73 13.418 22 19 
-12.596 -1.882 12.435 23 19 
-12.56 -1.87 12.495 24 19 
-5.484 1.537 11.176 4 1 
-4.947 -2.123 10.533 5 1 
-5.517 0.195 10.489 6 1 
-4.869 -0.899 11.123 7 1 
-5.644 -2.306 9.339 8 1 
-6.189 0.031 9.326 9 1 
-6.238 -1.228 8.717 10 1 
-6.208 2.438 10.717 15 1 
-4.735 1.635 12.204 17 1 
-4.395 -0.778 11.938 18 1 
-6.627 0.771 8.925 20 1 
1.655 0.746 13.455 23 32 
1.664 0.81 13.487 24 32 
-1.636 0 12.407 22 42 
-1.539 0.463 11.344 23 42 
-1.736 -0.461 13.47 23 42 
-1.545 0.435 11.411 24 42 
-1.728 -0.433 13.404 24 42 
5.485 -1.542 11.176 4 1 
4.947 2.119 10.533 5 1 
5.517 -0.2 10.489 6 1 
4.869 0.895 11.123 7 1 
5.644 2.302 9.339 8 1 
6.189 -0.036 9.326 9 1 
6.238 1.223 8.717 10 1 
6.209 -2.442 10.717 15 1 
4.735 -1.639 12.204 17 1 
4.395 0.774 11.937 18 1 
6.627 -0.775 8.925 20 1 
-11.03 7.688 9.682 8 1 
-12.109 7.095 10.304 10 1 
-12.638 5.812 12.36 11 1 
-11.813 6.404 11.5 12 1 
-12.032 4.947 13.185 13 1 
-10.163 7.623 10.066 19 1 
-9.991 3.78 13.528 20 1 
-10.96 6.359 11.706 21 1 
-10.092 3.421 9.163 22 18 
-10.585 4.101 9.967 23 18 
-9.601 2.739 8.36 23 18 
-10.554 4.059 9.919 24 18 
-9.63 2.783 8.409 24 18 
-6.171 4.241 11.516 1 1 
-4.648 3.176 13.39 2 1 
-3.351 4.398 11.231 3 1 
-5.874 5.853 12.585 14 1 
-4.448 4.542 10.656 14 1 
-7.684 3.801 12.682 15 1 
-3.135 3.85 12.37 16 1 
-3.171 5.708 8.955 19 1 
1.54 5.483 11.176 4 1 
-2.121 4.945 10.533 5 1 
0.198 5.515 10.489 6 1 
-0.897 4.867 11.123 7 1 
-2.304 5.642 9.339 8 1 
0.034 6.187 9.326 9 1 
-1.225 6.236 8.717 10 1 
2.44 6.207 10.717 15 1 
1.637 4.733 12.204 17 1 
-0.776 4.393 11.938 18 1 
0.774 6.625 8.925 20 1 
-1.424 7.351 13.584 23 16 
-1.453 7.396 13.537 24 16 
4.243 6.169 11.516 1 1 
3.178 4.645 13.39 2 1 
4.4 3.349 11.231 3 1 
4.545 4.446 10.658 14 1 
5.855 5.873 12.585 14 1 
3.803 7.682 12.682 15 1 
3.852 3.134 12.372 16 1 
5.71 3.169 8.955 19 1 
13.137 7.816 8.532 6 1 
13.301 7.144 9.695 9 1 
12.031 5.434 13.289 11 1 
10.726 5.757 13.332 12 1 
12.737 6.129 12.404 13 1 
10.895 7.125 8.304 15 1 
8.257 6.039 12.816 19 1 
12.562 6.706 10.096 20 1 
10.5 6.396 12.774 21 1 
11.063 4.507 9.818 22 3 
10.12 4.882 10.382 23 3 
12.008 4.133 9.253 23 3 
10.178 4.859 10.349 24 3 
11.95 4.157 9.287 24 3 
-11.213 8.386 8.488 5 1 
-8.887 8.788 8.365 14 1 
-9.387 12.24 12.186 22 31 
-9.004 11.636 13.102 23 31 
-9.77 12.842 11.268 23 31 
-9.026 11.673 13.046 24 31 
-9.745 12.807 11.326 24 31 
-13.017 10.982 11.065 22 48 
-11.899 11.122 10.777 23 48 
-11.969 11.113 10.793 24 48 
-7.818 13.135 8.532 6 1 
-7.146 13.299 9.695 9 1 
-5.435 12.029 13.289 11 1 
-5.758 10.724 13.332 12 1 
-6.13 12.735 12.404 13 1 
-7.126 10.893 8.304 15 1 
-6.04 8.255 12.816 19 1 
-6.707 12.56 10.096 20 1 
-6.398 10.498 12.774 21 1 
-4.088 12.153 8.158 22 14 
-3.314 11.357 8.502 23 14 
-3.361 11.406 8.482 24 14 
-1.901 8.1 12.834 22 16 
-2.381 8.848 12.085 23 16 
-2.35 8.802 12.13 24 16 
7.691 11.029 9.682 8 1 
7.097 12.108 10.304 10 1 
5.814 12.637 12.36 11 1 
6.406 11.813 11.5 12 1 
4.949 12.031 13.184 13 1 
7.625 10.162 10.066 19 1 
3.782 9.989 13.528 20 1 
6.361 10.959 11.705 21 1 
8.388 11.212 8.488 5 1 
8.791 8.885 8.365 14 1 
12.535 10.843 11.355 23 48 
12.605 10.852 11.338 24 48 
-2.675 -8.702 14.518 6 1 
-3.166 -9.905 14.245 9 1 
-2.814 -11.058 14.981 10 1 
-4.278 -12.826 14.014 11 1 
-3.31 -12.36 14.815 12 1 
-2.923 -12.969 15.319 21 1 
-0.234 -9.484 17.25 3 1 
-1.286 -9.631 16.22 5 1 
-1.739 -8.535 15.527 7 1 
-1.832 -10.87 15.944 8 1 
0.365 -10.504 17.647 14 1 
0.002 -8.293 17.643 16 1 
-1.523 -11.625 16.434 19 1 
1.182 -13.285 18.931 23 41 
1.112 -13.296 18.944 24 41 
3.196 -8.866 17.163 4 1 
4.041 -8.68 15.935 6 1 
5.53 -8.371 13.609 8 1 
4.554 -9.779 15.287 9 1 
5.271 -9.666 14.098 10 1 
4.448 -12.517 14.103 13 1 
3.044 -10.008 17.608 15 1 
4.417 -10.641 15.662 20 1 
-8.864 -3.198 17.163 4 1 
-8.678 -4.043 15.935 6 1 
-8.368 -5.532 13.609 8 1 
-9.777 -4.556 15.287 9 1 
-9.664 -5.273 14.098 10 1 
-12.515 -4.45 14.104 13 1 
-10.006 -3.046 17.608 15 1 
-10.639 -4.419 15.662 20 1 
-12.589 -4.443 18.749 23 37 
-12.534 -4.484 18.769 24 37 
-5.909 -5.238 13.667 3 1 
-3.118 -7.503 13.722 4 1 
-7.26 -5.051 14.271 5 1 
-7.395 -4.305 15.442 7 1 
-4.92 -4.744 14.267 16 1 
-2.697 -6.365 14.124 17 1 
-7.804 -2.701 17.629 17 1 
-6.627 -3.979 15.898 18 1 
-1.413 -7.667 15.738 18 1 
2.257 -4.437 17.295 22 23 
1.321 -5.028 16.943 23 23 
1.377 -4.991 16.967 24 23 
5.236 -5.911 13.667 3 1 
7.501 -3.12 13.722 4 1 
5.049 -7.262 14.271 5 1 
4.303 -7.397 15.442 7 1 
4.742 -4.922 14.267 16 1 
6.363 -2.699 14.124 17 1 
2.699 -7.806 17.629 17 1 
3.976 -6.629 15.898 18 1 
3.195 -3.845 17.644 23 23 
3.137 -3.88 17.623 24 23 
8.7 -2.677 14.518 6 1 
9.903 -3.168 14.245 9 1 
11.056 -2.816 14.981 10 1 