Title

1235 atoms
24 atom types
220 bonds
220 bond types

-13.335000 13.335000 xlo xhi
-13.335000 13.335000 ylo yhi
-19.021000 19.021000 zlo zhi


Atoms

1 1 1 0.82540 7.164 -9.094 7.505 #CU1
2 1 1 0.82540 4.243 6.169 -11.516 #CU1
3 1 1 0.82540 -6.171 4.241 -11.516 #CU1
4 1 1 0.82540 10.450 1.772 -19.021 #CU1
5 1 1 0.82540 6.171 -4.245 -11.516 #CU1
6 1 1 0.82540 -9.092 -7.166 -7.505 #CU1
7 1 1 0.82540 11.561 -2.887 0.000 #CU1
8 1 1 0.82540 7.164 -9.094 -7.505 #CU1
9 1 1 0.82540 -2.885 -11.563 0.000 #CU1
10 1 1 0.82540 -9.092 -7.166 7.505 #CU1
11 1 1 0.82540 9.092 7.162 -7.505 #CU1
12 1 1 0.82540 4.243 6.169 11.516 #CU1
13 1 1 0.82540 9.092 7.162 7.505 #CU1
14 1 1 0.82540 6.171 -4.245 11.516 #CU1
15 1 1 0.82540 -6.171 4.241 11.516 #CU1
16 1 1 0.82540 -4.243 -6.173 11.516 #CU1
17 1 1 0.82540 -7.163 9.090 7.505 #CU1
18 1 1 0.82540 -1.774 10.448 -19.021 #CU1
19 1 1 0.82540 1.774 -10.452 -19.021 #CU1
20 1 1 0.82540 -4.243 -6.173 -11.516 #CU1
21 1 1 0.82540 -10.450 -1.776 -19.021 #CU1
22 1 1 0.82540 -7.163 9.090 -7.505 #CU1
23 1 1 0.82540 2.885 11.559 0.000 #CU1
24 1 1 0.82540 -11.560 2.883 0.000 #CU1
25 1 2 1.31100 12.002 -5.481 0.000 #CU2
26 1 2 1.31100 -12.002 5.477 0.000 #CU2
27 1 2 1.31100 -3.178 -4.650 -13.390 #CU2
28 1 2 1.31100 8.687 -10.159 -5.631 #CU2
29 1 2 1.31100 -5.479 -12.004 -0.000 #CU2
30 1 2 1.31100 -10.157 -8.689 5.631 #CU2
31 1 2 1.31100 10.156 8.686 5.631 #CU2
32 1 2 1.31100 8.688 -10.159 5.631 #CU2
33 1 2 1.31100 4.648 -3.180 -13.390 #CU2
34 1 2 1.31100 7.856 1.331 -19.021 #CU2
35 1 2 1.31100 4.648 -3.180 13.390 #CU2
36 1 2 1.31100 -3.178 -4.650 13.390 #CU2
37 1 2 1.31100 3.178 4.645 13.390 #CU2
38 1 2 1.31100 -10.157 -8.689 -5.631 #CU2
39 1 2 1.31100 3.178 4.646 -13.390 #CU2
40 1 2 1.31100 -4.648 3.176 -13.390 #CU2
41 1 2 1.31100 -1.333 7.854 -19.021 #CU2
42 1 2 1.31100 1.333 -7.858 -19.021 #CU2
43 1 2 1.31100 -8.687 10.155 -5.631 #CU2
44 1 2 1.31100 -8.687 10.155 5.631 #CU2
45 1 2 1.31100 -7.856 -1.335 -19.021 #CU2
46 1 2 1.31100 10.157 8.685 -5.631 #CU2
47 1 2 1.31100 5.479 12.000 0.000 #CU2
48 1 2 1.31100 -4.648 3.176 13.390 #CU2
49 1 3 0.91300 -0.234 -9.484 17.250 #CPO
50 1 3 0.91300 4.400 3.349 -11.231 #CPO
51 1 3 0.91300 -9.984 8.933 -7.789 #CPO
52 1 3 0.91300 -8.099 7.424 -5.354 #CPO
53 1 3 0.91300 -9.481 0.232 17.250 #CPO
54 1 3 0.91300 5.909 5.234 -13.667 #CPO
55 1 3 0.91300 3.351 -4.402 -11.231 #CPO
56 1 3 0.91300 8.099 -7.428 -5.354 #CPO
57 1 3 0.91300 9.984 -8.937 -7.789 #CPO
58 1 3 0.91300 -7.426 -8.101 -5.354 #CPO
59 1 3 0.91300 -8.935 -9.986 -7.789 #CPO
60 1 3 0.91300 3.854 -13.103 -1.771 #CPO
61 1 3 0.91300 -7.426 -8.101 5.354 #CPO
62 1 3 0.91300 -8.935 -9.986 7.789 #CPO
63 1 3 0.91300 13.101 3.852 -1.771 #CPO
64 1 3 0.91300 13.101 3.852 1.771 #CPO
65 1 3 0.91300 5.909 5.234 13.667 #CPO
66 1 3 0.91300 4.400 3.349 11.231 #CPO
67 1 3 0.91300 8.099 -7.428 5.354 #CPO
68 1 3 0.91300 9.984 -8.937 7.789 #CPO
69 1 3 0.91300 9.481 -0.236 17.250 #CPO
70 1 3 0.91300 5.236 -5.911 -13.667 #CPO
71 1 3 0.91300 9.481 -0.236 -17.250 #CPO
72 1 3 0.91300 0.234 9.479 17.250 #CPO
73 1 3 0.91300 3.351 -4.402 11.231 #CPO
74 1 3 0.91300 5.236 -5.911 13.667 #CPO
75 1 3 0.91300 3.854 -13.103 1.771 #CPO
76 1 3 0.91300 -13.101 -3.856 -1.771 #CPO
77 1 3 0.91300 -13.101 -3.856 1.771 #CPO
78 1 3 0.91300 -5.235 5.907 13.667 #CPO
79 1 3 0.91300 -4.400 -3.353 11.231 #CPO
80 1 3 0.91300 -5.909 -5.238 13.667 #CPO
81 1 3 0.91300 -3.854 13.099 -1.771 #CPO
82 1 3 0.91300 -3.854 13.099 1.771 #CPO
83 1 3 0.91300 -9.984 8.933 7.790 #CPO
84 1 3 0.91300 0.234 9.479 -17.250 #CPO
85 1 3 0.91300 -5.236 5.907 -13.667 #CPO
86 1 3 0.91300 -0.234 -9.483 -17.249 #CPO
87 1 3 0.91300 -4.400 -3.353 -11.231 #CPO
88 1 3 0.91300 -5.909 -5.238 -13.667 #CPO
89 1 3 0.91300 -3.351 4.398 -11.231 #CPO
90 1 3 0.91300 -8.099 7.424 5.354 #CPO
91 1 3 0.91300 -9.481 0.232 -17.250 #CPO
92 1 3 0.91300 8.935 9.982 -7.789 #CPO
93 1 3 0.91300 7.426 8.097 -5.354 #CPO
94 1 3 0.91300 8.935 9.982 7.789 #CPO
95 1 3 0.91300 7.426 8.097 5.354 #CPO
96 1 3 0.91300 -3.351 4.398 11.231 #CPO
97 1 4 0.97030 10.139 -4.473 -1.858 #CFO
98 1 4 0.97030 5.834 -10.219 5.299 #CFO
99 1 4 0.97030 -5.485 1.538 -11.176 #CFO
100 1 4 0.97030 8.864 3.194 -17.163 #CFO
101 1 4 0.97030 5.485 -1.542 -11.176 #CFO
102 1 4 0.97030 -11.795 -7.852 -7.844 #CFO
103 1 4 0.97030 7.850 -11.797 -7.845 #CFO
104 1 4 0.97030 5.834 -10.218 -5.299 #CFO
105 1 4 0.97030 -4.471 -10.141 -1.858 #CFO
106 1 4 0.97030 -4.471 -10.141 1.858 #CFO
107 1 4 0.97030 -10.216 -5.836 5.299 #CFO
108 1 4 0.97030 -11.795 -7.852 7.845 #CFO
109 1 4 0.97030 10.216 5.832 -5.299 #CFO
110 1 4 0.97030 1.540 5.483 11.176 #CFO
111 1 4 0.97030 10.217 5.832 5.299 #CFO
112 1 4 0.97030 11.795 7.848 7.845 #CFO
113 1 4 0.97030 7.850 -11.797 7.845 #CFO
114 1 4 0.97030 10.139 -4.473 1.858 #CFO
115 1 4 0.97030 7.501 -3.121 -13.722 #CFO
116 1 4 0.97030 7.501 -3.120 13.722 #CFO
117 1 4 0.97030 3.119 7.499 13.722 #CFO
118 1 4 0.97030 5.485 -1.542 11.176 #CFO
119 1 4 0.97030 3.196 -8.866 17.163 #CFO
120 1 4 0.97030 -5.484 1.537 11.176 #CFO
121 1 4 0.97030 -10.216 -5.836 -5.299 #CFO
122 1 4 0.97030 -1.540 -5.487 11.176 #CFO
123 1 4 0.97030 -3.118 -7.503 13.722 #CFO
124 1 4 0.97030 -8.864 -3.198 17.163 #CFO
125 1 4 0.97030 1.540 5.483 -11.176 #CFO
126 1 4 0.97030 3.119 7.499 -13.722 #CFO
127 1 4 0.97030 -3.196 8.862 -17.163 #CFO
128 1 4 0.97030 3.196 -8.866 -17.163 #CFO
129 1 4 0.97030 -1.540 -5.487 -11.176 #CFO
130 1 4 0.97030 -3.119 -7.503 -13.722 #CFO
131 1 4 0.97030 -5.834 10.215 5.299 #CFO
132 1 4 0.97030 -7.850 11.793 7.845 #CFO
133 1 4 0.97030 -7.501 3.117 -13.722 #CFO
134 1 4 0.97030 -8.864 -3.198 -17.163 #CFO
135 1 4 0.97030 -5.834 10.214 -5.299 #CFO
136 1 4 0.97030 -7.850 11.793 -7.844 #CFO
137 1 4 0.97030 11.795 7.848 -7.845 #CFO
138 1 4 0.97030 4.471 10.137 -1.858 #CFO
139 1 4 0.97030 4.471 10.137 1.858 #CFO
140 1 4 0.97030 -7.501 3.117 13.722 #CFO
141 1 4 0.97030 -10.139 4.469 -1.858 #CFO
142 1 4 0.97030 -10.139 4.469 1.858 #CFO
143 1 4 0.97030 -3.195 8.862 17.163 #CFO
144 1 4 0.97030 8.864 3.194 17.163 #CFO
145 1 5 0.00150 8.286 -6.077 4.750 #CPC
146 1 5 0.00150 3.706 -12.052 2.801 #CPC
147 1 5 0.00150 -6.075 -8.288 4.750 #CPC
148 1 5 0.00150 -8.388 -11.216 8.488 #CPC
149 1 5 0.00150 -1.286 -9.631 16.220 #CPC
150 1 5 0.00150 -8.286 6.073 -4.750 #CPC
151 1 5 0.00150 -11.214 8.386 -8.488 #CPC
152 1 5 0.00150 -8.286 6.072 4.750 #CPC
153 1 5 0.00150 -11.213 8.386 8.488 #CPC
154 1 5 0.00150 -9.627 1.284 16.220 #CPC
155 1 5 0.00150 8.286 -6.077 -4.750 #CPC
156 1 5 0.00150 9.629 -1.287 -16.220 #CPC
157 1 5 0.00150 4.947 2.119 -10.533 #CPC
158 1 5 0.00150 2.121 -4.949 -10.533 #CPC
159 1 5 0.00150 -1.286 -9.631 -16.220 #CPC
160 1 5 0.00150 -8.388 -11.216 -8.488 #CPC
161 1 5 0.00150 11.214 -8.390 -8.488 #CPC
162 1 5 0.00150 3.706 -12.052 -2.801 #CPC
163 1 5 0.00150 -6.075 -8.288 -4.750 #CPC
164 1 5 0.00150 -12.050 -3.708 2.801 #CPC
165 1 5 0.00150 12.050 3.704 -2.801 #CPC
166 1 5 0.00150 12.050 3.704 2.801 #CPC
167 1 5 0.00150 4.947 2.119 10.533 #CPC
168 1 5 0.00150 -2.121 4.945 10.533 #CPC
169 1 5 0.00150 6.075 8.284 4.750 #CPC
170 1 5 0.00150 9.629 -1.288 16.220 #CPC
171 1 5 0.00150 11.214 -8.390 8.488 #CPC
172 1 5 0.00150 5.049 -7.262 -14.271 #CPC
173 1 5 0.00150 7.260 5.047 -14.271 #CPC
174 1 5 0.00150 2.121 -4.949 10.533 #CPC
175 1 5 0.00150 1.285 9.627 16.220 #CPC
176 1 5 0.00150 8.388 11.212 8.488 #CPC
177 1 5 0.00150 5.049 -7.262 14.271 #CPC
178 1 5 0.00150 -12.049 -3.708 -2.800 #CPC
179 1 5 0.00150 -4.947 -2.123 10.533 #CPC
180 1 5 0.00150 -7.260 -5.051 14.271 #CPC
181 1 5 0.00150 1.285 9.627 -16.220 #CPC
182 1 5 0.00150 8.388 11.212 -8.488 #CPC
183 1 5 0.00150 6.075 8.284 -4.750 #CPC
184 1 5 0.00150 -3.706 12.047 -2.801 #CPC
185 1 5 0.00150 -5.049 7.258 -14.271 #CPC
186 1 5 0.00150 -4.947 -2.123 -10.533 #CPC
187 1 5 0.00150 -7.260 -5.050 -14.271 #CPC
188 1 5 0.00150 -2.121 4.945 -10.533 #CPC
189 1 5 0.00150 -3.706 12.048 2.801 #CPC
190 1 5 0.00150 -9.629 1.283 -16.220 #CPC
191 1 5 0.00150 -5.049 7.258 14.271 #CPC
192 1 5 0.00150 7.260 5.047 14.271 #CPC
193 1 6 -0.09780 9.294 -4.659 3.086 #CFC
194 1 6 -0.09780 4.635 -10.662 4.503 #CFC
195 1 6 -0.09780 9.294 -4.659 -3.086 #CFC
196 1 6 -0.09780 0.198 5.515 -10.489 #CFC
197 1 6 -0.09780 -5.517 0.196 -10.489 #CFC
198 1 6 -0.09780 -9.294 4.655 -3.085 #CFC
199 1 6 -0.09780 -9.293 4.655 3.086 #CFC
200 1 6 -0.09780 -0.198 -5.519 -10.489 #CFC
201 1 6 -0.09780 -2.675 -8.702 -14.518 #CFC
202 1 6 -0.09780 -13.137 -7.820 -8.532 #CFC
203 1 6 -0.09780 7.818 -13.139 -8.532 #CFC
204 1 6 -0.09780 4.635 -10.662 -4.503 #CFC
205 1 6 -0.09780 -4.657 -9.296 -3.086 #CFC
206 1 6 -0.09780 -4.657 -9.296 3.086 #CFC
207 1 6 -0.09780 -10.660 -4.637 4.503 #CFC
208 1 6 -0.09780 -13.137 -7.820 8.532 #CFC
209 1 6 -0.09780 10.660 4.633 -4.503 #CFC
210 1 6 -0.09780 13.137 7.816 -8.532 #CFC
211 1 6 -0.09780 5.517 -0.200 -10.489 #CFC
212 1 6 -0.09780 0.198 5.515 10.489 #CFC
213 1 6 -0.09780 13.137 7.816 8.532 #CFC
214 1 6 -0.09780 10.660 4.633 4.503 #CFC
215 1 6 -0.09780 7.818 -13.139 8.532 #CFC
216 1 6 -0.09780 8.700 -2.677 -14.518 #CFC
217 1 6 -0.09780 8.678 4.039 -15.935 #CFC
218 1 6 -0.09780 5.517 -0.200 10.489 #CFC
219 1 6 -0.09780 -0.198 -5.519 10.489 #CFC
220 1 6 -0.09780 -2.675 -8.702 14.518 #CFC
221 1 6 -0.09780 2.675 8.698 14.518 #CFC
222 1 6 -0.09780 4.041 -8.680 15.935 #CFC
223 1 6 -0.09780 -10.660 -4.637 -4.503 #CFC
224 1 6 -0.09780 -5.517 0.195 10.489 #CFC
225 1 6 -0.09780 -8.678 -4.043 15.935 #CFC
226 1 6 -0.09780 2.675 8.698 -14.518 #CFC
227 1 6 -0.09780 -4.635 10.658 4.503 #CFC
228 1 6 -0.09780 -4.041 8.676 -15.935 #CFC
229 1 6 -0.09780 4.041 -8.680 -15.935 #CFC
230 1 6 -0.09780 -4.635 10.658 -4.503 #CFC
231 1 6 -0.09780 -7.818 13.135 -8.532 #CFC
232 1 6 -0.09780 -7.818 13.135 8.532 #CFC
233 1 6 -0.09780 -8.678 -4.043 -15.935 #CFC
234 1 6 -0.09780 -8.700 2.673 -14.518 #CFC
235 1 6 -0.09780 4.657 9.292 -3.086 #CFC
236 1 6 -0.09780 4.657 9.292 3.086 #CFC
237 1 6 -0.09780 -8.700 2.673 14.518 #CFC
238 1 6 -0.09780 -4.041 8.676 15.935 #CFC
239 1 6 -0.09780 8.678 4.039 15.935 #CFC
240 1 6 -0.09780 8.700 -2.677 14.518 #CFC
241 1 7 -0.20950 9.032 -5.942 -3.579 #CH
242 1 7 -0.20950 4.802 -11.598 3.494 #CH
243 1 7 -0.20950 -0.897 4.867 -11.123 #CH
244 1 7 -0.20950 -4.869 -0.899 -11.123 #CH
245 1 7 -0.20950 -12.438 8.464 -7.897 #CH
246 1 7 -0.20950 -9.032 5.938 -3.578 #CH
247 1 7 -0.20950 -8.533 1.737 15.527 #CH
248 1 7 -0.20950 12.438 -8.468 -7.897 #CH
249 1 7 -0.20950 8.533 -1.741 -15.527 #CH
250 1 7 -0.20950 7.395 4.301 -15.442 #CH
251 1 7 -0.20950 4.869 0.895 -11.123 #CH
252 1 7 -0.20950 -1.739 -8.535 -15.527 #CH
253 1 7 -0.20950 -8.466 -12.440 -7.897 #CH
254 1 7 -0.20950 4.802 -11.598 -3.494 #CH
255 1 7 -0.20950 -5.940 -9.034 -3.579 #CH
256 1 7 -0.20950 -5.940 -9.034 3.579 #CH
257 1 7 -0.20950 -8.466 -12.440 7.897 #CH
258 1 7 -0.20950 -11.596 -4.804 3.494 #CH
259 1 7 -0.20950 11.596 4.800 -3.494 #CH
260 1 7 -0.20950 11.596 4.800 3.494 #CH
261 1 7 -0.20950 4.869 0.895 11.123 #CH
262 1 7 -0.20950 -0.897 4.867 11.123 #CH
263 1 7 -0.20950 9.032 -5.942 3.579 #CH
264 1 7 -0.20950 8.533 -1.741 15.527 #CH
265 1 7 -0.20950 12.438 -8.468 7.897 #CH
266 1 7 -0.20950 0.897 -4.871 11.123 #CH
267 1 7 -0.20950 -1.739 -8.535 15.527 #CH
268 1 7 -0.20950 8.466 12.436 7.897 #CH
269 1 7 -0.20950 1.739 8.531 15.527 #CH
270 1 7 -0.20950 4.303 -7.397 15.442 #CH
271 1 7 -0.20950 -11.596 -4.804 -3.494 #CH
272 1 7 -0.20950 -4.869 -0.899 11.123 #CH
273 1 7 -0.20950 -7.395 -4.305 15.442 #CH
274 1 7 -0.20950 1.739 8.531 -15.527 #CH
275 1 7 -0.20950 8.466 12.436 -7.897 #CH
276 1 7 -0.20950 5.940 9.030 -3.579 #CH
277 1 7 -0.20950 -4.802 11.594 -3.494 #CH
278 1 7 -0.20950 -4.802 11.594 3.494 #CH
279 1 7 -0.20950 -12.438 8.464 7.898 #CH
280 1 7 -0.20950 -4.303 7.393 -15.442 #CH
281 1 7 -0.20950 4.303 -7.397 -15.442 #CH
282 1 7 -0.20950 0.897 -4.871 -11.123 #CH
283 1 7 -0.20950 -8.533 1.737 -15.527 #CH
284 1 7 -0.20950 -7.395 -4.305 -15.442 #CH
285 1 7 -0.20950 5.940 9.030 3.579 #CH
286 1 7 -0.20950 -9.032 5.938 3.579 #CH
287 1 7 -0.20950 -4.303 7.393 15.442 #CH
288 1 7 -0.20950 7.395 4.301 15.442 #CH
289 1 8 -0.40800 -1.832 -10.870 15.944 #CPH
290 1 8 -0.40800 7.805 -4.968 -5.411 #CPH
291 1 8 -0.40800 -5.644 -2.306 -9.339 #CPH
292 1 8 -0.40800 -11.031 7.689 -9.682 #CPH
293 1 8 -0.40800 -10.866 1.830 15.944 #CPH
294 1 8 -0.40800 2.304 -5.646 -9.339 #CPH
295 1 8 -0.40800 11.031 -7.693 -9.682 #CPH
296 1 8 -0.40800 2.467 -11.505 -3.077 #CPH
297 1 8 -0.40800 -7.691 -11.033 -9.682 #CPH
298 1 8 -0.40800 -4.966 -7.807 -5.411 #CPH
299 1 8 -0.40800 -4.966 -7.807 5.411 #CPH
300 1 8 -0.40800 -7.691 -11.033 9.682 #CPH
301 1 8 -0.40800 11.503 2.465 -3.077 #CPH
302 1 8 -0.40800 5.644 2.302 -9.339 #CPH
303 1 8 -0.40800 11.503 2.465 3.077 #CPH
304 1 8 -0.40800 -2.467 11.501 3.077 #CPH
305 1 8 -0.40800 11.031 -7.693 9.682 #CPH
306 1 8 -0.40800 10.868 -1.834 15.944 #CPH
307 1 8 -0.40800 7.805 -4.968 5.411 #CPH
308 1 8 -0.40800 10.868 -1.834 -15.944 #CPH
309 1 8 -0.40800 8.368 5.528 -13.609 #CPH
310 1 8 -0.40800 5.644 2.302 9.339 #CPH
311 1 8 -0.40800 2.304 -5.646 9.339 #CPH
312 1 8 -0.40800 1.832 10.866 15.944 #CPH
313 1 8 -0.40800 7.691 11.029 9.682 #CPH
314 1 8 -0.40800 5.530 -8.371 13.609 #CPH
315 1 8 -0.40800 2.467 -11.505 3.077 #CPH
316 1 8 -0.40800 -11.503 -2.469 3.077 #CPH
317 1 8 -0.40800 -11.503 -2.469 -3.077 #CPH
318 1 8 -0.40800 -7.805 4.964 -5.411 #CPH
319 1 8 -0.40800 -5.644 -2.306 9.339 #CPH
320 1 8 -0.40800 -8.368 -5.532 13.609 #CPH
321 1 8 -0.40800 4.966 7.803 -5.411 #CPH
322 1 8 -0.40800 -11.030 7.688 9.682 #CPH
323 1 8 -0.40800 1.832 10.866 -15.944 #CPH
324 1 8 -0.40800 -5.530 8.367 -13.609 #CPH
325 1 8 -0.40800 5.530 -8.371 -13.609 #CPH
326 1 8 -0.40800 -1.832 -10.870 -15.944 #CPH
327 1 8 -0.40800 -8.369 -5.532 -13.609 #CPH
328 1 8 -0.40800 -2.304 5.642 -9.339 #CPH
329 1 8 -0.40800 -2.467 11.501 -3.077 #CPH
330 1 8 -0.40800 -10.868 1.830 -15.944 #CPH
331 1 8 -0.40800 7.691 11.029 -9.682 #CPH
332 1 8 -0.40800 4.967 7.803 5.411 #CPH
333 1 8 -0.40800 -2.304 5.642 9.339 #CPH
334 1 8 -0.40800 -7.805 4.965 5.412 #CPH
335 1 8 -0.40800 -5.530 8.367 13.609 #CPH
336 1 8 -0.40800 8.369 5.528 13.609 #CPH
337 1 9 -0.26400 8.781 -3.560 -3.733 #CFH
338 1 9 -0.26400 -13.301 -7.148 -9.695 #CFH
339 1 9 -0.26400 7.146 -13.303 -9.695 #CFH
340 1 9 -0.26400 3.432 -10.171 -4.776 #CFH
341 1 9 -0.26400 -3.558 -8.783 -3.733 #CFH
342 1 9 -0.26400 -3.558 -8.783 3.733 #CFH
343 1 9 -0.26400 -13.301 -7.148 9.695 #CFH
344 1 9 -0.26400 6.189 -0.036 9.326 #CFH
345 1 9 -0.26400 13.301 7.144 -9.695 #CFH
346 1 9 -0.26400 10.169 3.430 4.776 #CFH
347 1 9 -0.26400 8.781 -3.560 3.733 #CFH
348 1 9 -0.26400 6.189 -0.036 -9.326 #CFH
349 1 9 -0.26400 9.903 -3.168 -14.245 #CFH
350 1 9 -0.26400 9.777 4.552 -15.287 #CFH
351 1 9 -0.26400 -0.034 -6.191 9.326 #CFH
352 1 9 -0.26400 -3.166 -9.905 14.245 #CFH
353 1 9 -0.26400 3.166 9.901 14.245 #CFH
354 1 9 -0.26400 7.146 -13.303 9.695 #CFH
355 1 9 -0.26400 4.554 -9.779 15.287 #CFH
356 1 9 -0.26400 3.432 -10.171 4.776 #CFH
357 1 9 -0.26400 -10.169 -3.434 -4.776 #CFH
358 1 9 -0.26400 -6.189 0.031 9.326 #CFH
359 1 9 -0.26400 -10.169 -3.434 4.776 #CFH
360 1 9 -0.26400 -9.777 -4.556 15.287 #CFH
361 1 9 -0.26400 3.166 9.901 -14.245 #CFH
362 1 9 -0.26400 -3.432 10.167 -4.776 #CFH
363 1 9 -0.26400 -4.554 9.775 -15.287 #CFH
364 1 9 -0.26400 -3.166 -9.905 -14.245 #CFH
365 1 9 -0.26400 4.554 -9.779 -15.287 #CFH
366 1 9 -0.26400 -6.189 0.032 -9.326 #CFH
367 1 9 -0.26400 -0.034 -6.191 -9.326 #CFH
368 1 9 -0.26400 0.034 6.187 -9.326 #CFH
369 1 9 -0.26400 -7.146 13.299 -9.695 #CFH
370 1 9 -0.26400 -3.432 10.167 4.776 #CFH
371 1 9 -0.26400 -7.146 13.299 9.695 #CFH
372 1 9 -0.26400 -9.777 -4.556 -15.287 #CFH
373 1 9 -0.26400 -9.903 3.164 -14.245 #CFH
374 1 9 -0.26400 10.169 3.430 -4.776 #CFH
375 1 9 -0.26400 3.558 8.778 -3.733 #CFH
376 1 9 -0.26400 3.558 8.779 3.733 #CFH
377 1 9 -0.26400 0.034 6.187 9.326 #CFH
378 1 9 -0.26400 -9.903 3.164 14.245 #CFH
379 1 9 -0.26400 -8.780 3.556 -3.733 #CFH
380 1 9 -0.26400 -8.780 3.556 3.734 #CFH
381 1 9 -0.26400 -4.554 9.775 15.287 #CFH
382 1 9 -0.26400 13.301 7.144 9.695 #CFH
383 1 9 -0.26400 9.777 4.552 15.287 #CFH
384 1 9 -0.26400 9.903 -3.168 14.245 #CFH
385 1 10 0.45070 -2.814 -11.058 14.981 #CN2
386 1 10 0.45070 8.064 -3.673 -4.923 #CN2
387 1 10 0.45070 6.238 1.223 -8.717 #CN2
388 1 10 0.45070 -12.110 7.095 -10.304 #CN2
389 1 10 0.45070 -11.055 2.812 14.982 #CN2
390 1 10 0.45070 12.110 -7.099 -10.304 #CN2
391 1 10 0.45070 1.226 -6.240 -8.717 #CN2
392 1 10 0.45070 -3.671 -8.066 -4.923 #CN2
393 1 10 0.45070 -7.097 -12.112 -10.303 #CN2
394 1 10 0.45070 2.279 -10.523 -4.040 #CN2
395 1 10 0.45070 -3.671 -8.066 4.923 #CN2
396 1 10 0.45070 -7.097 -12.111 10.304 #CN2
397 1 10 0.45070 -8.063 3.669 4.923 #CN2
398 1 10 0.45070 10.521 2.277 -4.040 #CN2
399 1 10 0.45070 6.238 1.223 8.717 #CN2
400 1 10 0.45070 10.521 2.277 4.040 #CN2
401 1 10 0.45070 -2.279 10.519 4.040 #CN2
402 1 10 0.45070 8.064 -3.673 4.923 #CN2
403 1 10 0.45070 11.056 -2.816 14.981 #CN2
404 1 10 0.45070 12.110 -7.099 10.304 #CN2
405 1 10 0.45070 11.056 -2.816 -14.981 #CN2
406 1 10 0.45070 9.664 5.269 -14.098 #CN2
407 1 10 0.45070 1.226 -6.240 8.717 #CN2
408 1 10 0.45070 2.814 11.054 14.981 #CN2
409 1 10 0.45070 7.097 12.108 10.304 #CN2
410 1 10 0.45070 5.271 -9.666 14.098 #CN2
411 1 10 0.45070 2.279 -10.523 4.040 #CN2
412 1 10 0.45070 -10.521 -2.281 -4.039 #CN2
413 1 10 0.45070 -10.521 -2.281 4.040 #CN2
414 1 10 0.45070 -6.238 -1.228 8.717 #CN2
415 1 10 0.45070 -8.064 3.669 -4.923 #CN2
416 1 10 0.45070 -9.664 -5.273 14.098 #CN2
417 1 10 0.45070 2.814 11.054 -14.981 #CN2
418 1 10 0.45070 3.671 8.062 -4.923 #CN2
419 1 10 0.45070 -2.279 10.519 -4.040 #CN2
420 1 10 0.45070 -12.109 7.095 10.304 #CN2
421 1 10 0.45070 -5.271 9.662 -14.098 #CN2
422 1 10 0.45070 -2.814 -11.058 -14.981 #CN2
423 1 10 0.45070 5.271 -9.666 -14.098 #CN2
424 1 10 0.45070 -6.238 -1.227 -8.717 #CN2
425 1 10 0.45070 -9.664 -5.273 -14.098 #CN2
426 1 10 0.45070 -1.225 6.236 -8.717 #CN2
427 1 10 0.45070 -11.056 2.812 -14.981 #CN2
428 1 10 0.45070 7.097 12.108 -10.304 #CN2
429 1 10 0.45070 3.671 8.062 4.923 #CN2
430 1 10 0.45070 -1.225 6.236 8.717 #CN2
431 1 10 0.45070 -5.271 9.662 14.098 #CN2
432 1 10 0.45070 9.664 5.269 14.098 #CN2
433 1 11 1.00640 -1.304 -7.902 5.732 #CN1
434 1 11 1.00640 -5.814 -12.641 12.360 #CN1
435 1 11 1.00640 -4.278 -12.826 14.014 #CN1
436 1 11 1.00640 7.521 0.694 -6.661 #CN1
437 1 11 1.00640 -7.521 -0.698 -6.661 #CN1
438 1 11 1.00640 -12.639 5.812 -12.360 #CN1
439 1 11 1.00640 -12.638 5.812 12.360 #CN1
440 1 11 1.00640 -12.823 4.276 14.014 #CN1
441 1 11 1.00640 12.824 -4.280 -14.014 #CN1
442 1 11 1.00640 0.696 -7.523 -6.661 #CN1
443 1 11 1.00640 -4.278 -12.826 -14.014 #CN1
444 1 11 1.00640 -1.304 -7.902 -5.732 #CN1
445 1 11 1.00640 -5.814 -12.641 -12.360 #CN1
446 1 11 1.00640 0.511 -9.059 -5.007 #CN1
447 1 11 1.00640 -7.899 1.302 5.732 #CN1
448 1 11 1.00640 7.900 -1.306 -5.732 #CN1
449 1 11 1.00640 9.057 0.509 -5.007 #CN1
450 1 11 1.00640 7.900 -1.306 5.732 #CN1
451 1 11 1.00640 7.521 0.694 6.661 #CN1
452 1 11 1.00640 12.031 5.434 13.289 #CN1
453 1 11 1.00640 9.057 0.509 5.007 #CN1
454 1 11 1.00640 -0.511 9.055 5.007 #CN1
455 1 11 1.00640 1.304 7.898 5.732 #CN1
456 1 11 1.00640 12.639 -5.816 12.360 #CN1
457 1 11 1.00640 12.824 -4.280 14.014 #CN1
458 1 11 1.00640 5.435 -12.033 -13.289 #CN1
459 1 11 1.00640 12.031 5.433 -13.289 #CN1
460 1 11 1.00640 4.278 12.822 14.014 #CN1
461 1 11 1.00640 5.814 12.637 12.360 #CN1
462 1 11 1.00640 5.435 -12.033 13.289 #CN1
463 1 11 1.00640 12.639 -5.816 -12.360 #CN1
464 1 11 1.00640 0.511 -9.059 5.007 #CN1
465 1 11 1.00640 0.696 -7.523 6.661 #CN1
466 1 11 1.00640 -9.057 -0.513 5.007 #CN1
467 1 11 1.00640 -7.521 -0.698 6.661 #CN1
468 1 11 1.00640 -5.435 12.029 13.289 #CN1
469 1 11 1.00640 -9.057 -0.513 -5.007 #CN1
470 1 11 1.00640 -7.900 1.302 -5.732 #CN1
471 1 11 1.00640 -12.031 -5.437 13.289 #CN1
472 1 11 1.00640 4.278 12.822 -14.014 #CN1
473 1 11 1.00640 1.304 7.898 -5.732 #CN1
474 1 11 1.00640 -0.696 7.519 -6.661 #CN1
475 1 11 1.00640 -0.511 9.055 -5.007 #CN1
476 1 11 1.00640 -5.435 12.029 -13.289 #CN1
477 1 11 1.00640 -12.031 -5.437 -13.289 #CN1
478 1 11 1.00640 -12.824 4.276 -14.014 #CN1
479 1 11 1.00640 5.814 12.637 -12.360 #CN1
480 1 11 1.00640 -0.696 7.519 6.661 #CN1
481 1 12 -0.69930 -6.406 -11.816 11.500 #NH
482 1 12 -0.69930 -3.310 -12.360 14.815 #NH
483 1 12 -0.69930 6.929 1.518 -7.521 #NH
484 1 12 -0.69930 -6.929 -1.522 -7.521 #NH
485 1 12 -0.69930 -11.813 6.404 11.500 #NH
486 1 12 -0.69930 -12.357 3.308 14.816 #NH
487 1 12 -0.69930 11.815 -6.408 -11.500 #NH
488 1 12 -0.69930 1.520 -6.931 -7.521 #NH
489 1 12 -0.69930 -3.310 -12.360 -14.815 #NH
490 1 12 -0.69930 -6.406 -11.817 -11.500 #NH
491 1 12 -0.69930 0.977 -10.027 -4.205 #NH
492 1 12 -0.69930 -2.609 -7.578 -5.689 #NH
493 1 12 -0.69930 -2.609 -7.578 5.689 #NH
494 1 12 -0.69930 -7.576 2.606 5.689 #NH
495 1 12 -0.69930 7.576 -2.611 -5.689 #NH
496 1 12 -0.69930 6.929 1.518 7.521 #NH
497 1 12 -0.69930 10.025 0.975 -4.206 #NH
498 1 12 -0.69930 -0.977 10.023 4.205 #NH
499 1 12 -0.69930 10.025 0.975 4.205 #NH
500 1 12 -0.69930 7.576 -2.611 5.689 #NH
501 1 12 -0.69930 11.815 -6.408 11.500 #NH
502 1 12 -0.69930 12.358 -3.312 14.815 #NH
503 1 12 -0.69930 12.358 -3.312 -14.815 #NH
504 1 12 -0.69930 10.726 5.757 -13.332 #NH
505 1 12 -0.69930 1.520 -6.931 7.521 #NH
506 1 12 -0.69930 3.310 12.356 14.815 #NH
507 1 12 -0.69930 6.406 11.813 11.500 #NH
508 1 12 -0.69930 5.759 -10.728 13.332 #NH
509 1 12 -0.69930 0.977 -10.027 4.206 #NH
510 1 12 -0.69930 -6.929 -1.523 7.521 #NH
511 1 12 -0.69930 -10.025 -0.979 -4.205 #NH
512 1 12 -0.69930 -10.025 -0.979 4.206 #NH
513 1 12 -0.69930 -10.726 -5.761 13.332 #NH
514 1 12 -0.69930 3.310 12.356 -14.815 #NH
515 1 12 -0.69930 2.609 7.574 -5.689 #NH
516 1 12 -0.69930 -5.759 10.724 -13.332 #NH
517 1 12 -0.69930 5.759 -10.728 -13.332 #NH
518 1 12 -0.69930 -10.726 -5.761 -13.332 #NH
519 1 12 -0.69930 -1.520 6.927 -7.521 #NH
520 1 12 -0.69930 -0.977 10.023 -4.205 #NH
521 1 12 -0.69930 -12.358 3.308 -14.815 #NH
522 1 12 -0.69930 6.406 11.813 -11.500 #NH
523 1 12 -0.69930 2.609 7.574 5.689 #NH
524 1 12 -0.69930 -1.520 6.927 7.521 #NH
525 1 12 -0.69930 -7.576 2.607 -5.689 #NH
526 1 12 -0.69930 -11.815 6.404 -11.500 #NH
527 1 12 -0.69930 -5.758 10.724 13.332 #NH
528 1 12 -0.69930 10.726 5.757 13.332 #NH
529 1 13 -0.90270 -0.820 -8.889 4.917 #NC
530 1 13 -0.90270 -4.950 -12.035 13.184 #NC
531 1 13 -0.90270 7.204 -0.600 -6.617 #NC
532 1 13 -0.90270 -7.204 0.596 -6.616 #NC
533 1 13 -0.90270 -12.033 4.947 -13.184 #NC
534 1 13 -0.90270 -12.032 4.947 13.185 #NC
535 1 13 -0.90270 12.033 -4.951 -13.184 #NC
536 1 13 -0.90270 1.302 -8.388 -5.836 #NC
537 1 13 -0.90270 -4.949 -12.035 -13.184 #NC
538 1 13 -0.90270 -0.820 -8.889 -4.917 #NC
539 1 13 -0.90270 -0.598 -7.206 -6.617 #NC
540 1 13 -0.90270 -8.887 0.818 4.917 #NC
541 1 13 -0.90270 8.887 -0.822 4.917 #NC
542 1 13 -0.90270 12.737 6.129 12.404 #NC
543 1 13 -0.90270 12.515 4.446 14.104 #NC
544 1 13 -0.90270 8.887 -0.822 -4.917 #NC
545 1 13 -0.90270 8.386 1.300 -5.836 #NC
546 1 13 -0.90270 8.386 1.300 5.836 #NC
547 1 13 -0.90270 -1.302 8.384 5.836 #NC
548 1 13 -0.90270 0.820 8.885 4.917 #NC
549 1 13 -0.90270 0.598 7.202 6.617 #NC
550 1 13 -0.90270 7.204 -0.600 6.617 #NC
551 1 13 -0.90270 12.033 -4.951 13.184 #NC
552 1 13 -0.90270 6.131 -12.739 -12.404 #NC
553 1 13 -0.90270 4.448 -12.517 -14.104 #NC
554 1 13 -0.90270 12.737 6.129 -12.404 #NC
555 1 13 -0.90270 12.515 4.446 -14.104 #NC
556 1 13 -0.90270 4.949 12.031 13.184 #NC
557 1 13 -0.90270 6.131 -12.739 12.404 #NC
558 1 13 -0.90270 4.448 -12.517 14.103 #NC
559 1 13 -0.90270 -0.598 -7.206 6.617 #NC
560 1 13 -0.90270 1.302 -8.388 5.836 #NC
561 1 13 -0.90270 -6.130 12.735 12.404 #NC
562 1 13 -0.90270 -4.447 12.513 14.104 #NC
563 1 13 -0.90270 -8.887 0.818 -4.917 #NC
564 1 13 -0.90270 -8.385 -1.304 5.836 #NC
565 1 13 -0.90270 -12.737 -6.133 12.404 #NC
566 1 13 -0.90270 -12.515 -4.450 14.104 #NC
567 1 13 -0.90270 4.949 12.031 -13.184 #NC
568 1 13 -0.90270 0.598 7.202 -6.617 #NC
569 1 13 -0.90270 -6.131 12.735 -12.404 #NC
570 1 13 -0.90270 -4.448 12.513 -14.104 #NC
571 1 13 -0.90270 -12.737 -6.133 -12.404 #NC
572 1 13 -0.90270 -12.515 -4.450 -14.103 #NC
573 1 13 -0.90270 -1.302 8.384 -5.836 #NC
574 1 13 -0.90270 0.820 8.885 -4.917 #NC
575 1 13 -0.90270 -8.385 -1.304 -5.836 #NC
576 1 13 -0.90270 -7.204 0.596 6.617 #NC
577 1 14 -0.71760 7.461 -7.481 6.436 #OP1
578 1 14 -0.71760 8.887 -8.792 8.365 #OP1
579 1 14 -0.71760 -8.790 -8.889 8.365 #OP1
580 1 14 -0.71760 0.365 -10.504 17.647 #OP1
581 1 14 -0.71760 5.856 5.872 -12.585 #OP1
582 1 14 -0.71760 -5.874 5.854 -12.584 #OP1
583 1 14 -0.71760 -4.448 4.543 -10.656 #OP1
584 1 14 -0.71760 -7.461 7.477 -6.436 #OP1
585 1 14 -0.71760 -8.887 8.788 -8.365 #OP1
586 1 14 -0.71760 -8.887 8.788 8.365 #OP1
587 1 14 -0.71760 -10.500 -0.367 17.648 #OP1
588 1 14 -0.71760 7.461 -7.481 -6.436 #OP1
589 1 14 -0.71760 8.887 -8.792 -8.365 #OP1
590 1 14 -0.71760 10.502 0.363 -17.647 #OP1
591 1 14 -0.71760 4.545 4.446 -10.656 #OP1
592 1 14 -0.71760 0.365 -10.504 -17.647 #OP1
593 1 14 -0.71760 -7.479 -7.463 -6.436 #OP1
594 1 14 -0.71760 -8.790 -8.889 -8.364 #OP1
595 1 14 -0.71760 12.970 -2.835 1.374 #OP1
596 1 14 -0.71760 12.970 -2.835 -1.374 #OP1
597 1 14 -0.71760 -2.833 -12.972 1.374 #OP1
598 1 14 -0.71760 -2.833 -12.972 -1.374 #OP1
599 1 14 -0.71760 -7.479 -7.463 6.436 #OP1
600 1 14 -0.71760 4.545 4.446 10.658 #OP1
601 1 14 -0.71760 5.855 5.873 12.585 #OP1
602 1 14 -0.71760 -5.874 5.853 12.585 #OP1
603 1 14 -0.71760 -4.448 4.542 10.656 #OP1
604 1 14 -0.71760 7.479 7.459 6.436 #OP1
605 1 14 -0.71760 8.791 8.885 8.365 #OP1
606 1 14 -0.71760 10.502 0.363 17.647 #OP1
607 1 14 -0.71760 5.874 -5.858 -12.585 #OP1
608 1 14 -0.71760 4.448 -4.547 -10.656 #OP1
609 1 14 -0.71760 5.874 -5.858 12.585 #OP1
610 1 14 -0.71760 4.448 -4.547 10.656 #OP1
611 1 14 -0.71760 -0.365 10.500 17.647 #OP1
612 1 14 -0.71760 -5.856 -5.876 12.585 #OP1
613 1 14 -0.71760 -4.545 -4.450 10.656 #OP1
614 1 14 -0.71760 -0.365 10.500 -17.647 #OP1
615 1 14 -0.71760 7.479 7.459 -6.436 #OP1
616 1 14 -0.71760 -4.545 -4.450 -10.656 #OP1
617 1 14 -0.71760 -5.856 -5.876 -12.584 #OP1
618 1 14 -0.71760 -7.460 7.477 6.436 #OP1
619 1 14 -0.71760 -10.502 -0.367 -17.647 #OP1
620 1 14 -0.71760 8.791 8.885 -8.365 #OP1
621 1 14 -0.71760 2.833 12.968 1.374 #OP1
622 1 14 -0.71760 2.833 12.968 -1.374 #OP1
623 1 14 -0.71760 -12.970 2.831 1.374 #OP1
624 1 14 -0.71760 -12.970 2.831 -1.373 #OP1
625 1 15 -0.74330 2.440 6.206 -10.717 #OF1
626 1 15 -0.74330 -10.895 -7.128 -8.304 #OF1
627 1 15 -0.74330 10.291 -3.331 -1.413 #OF1
628 1 15 -0.74330 7.126 -10.897 -8.304 #OF1
629 1 15 -0.74330 5.651 -9.534 -6.339 #OF1
630 1 15 -0.74330 -3.329 -10.293 -1.413 #OF1
631 1 15 -0.74330 -3.329 -10.293 1.413 #OF1
632 1 15 -0.74330 -9.531 -5.652 6.339 #OF1
633 1 15 -0.74330 -10.895 -7.128 8.304 #OF1
634 1 15 -0.74330 10.895 7.124 -8.304 #OF1
635 1 15 -0.74330 6.209 -2.442 -10.717 #OF1
636 1 15 -0.74330 9.532 5.649 6.339 #OF1
637 1 15 -0.74330 10.895 7.125 8.304 #OF1
638 1 15 -0.74330 7.127 -10.897 8.304 #OF1
639 1 15 -0.74330 10.291 -3.331 1.413 #OF1
640 1 15 -0.74330 7.684 -3.805 -12.682 #OF1
641 1 15 -0.74330 10.006 3.042 -17.608 #OF1
642 1 15 -0.74330 7.684 -3.805 12.682 #OF1
643 1 15 -0.74330 3.803 7.682 12.682 #OF1
644 1 15 -0.74330 6.209 -2.442 10.717 #OF1
645 1 15 -0.74330 3.044 -10.008 17.608 #OF1
646 1 15 -0.74330 5.651 -9.534 6.339 #OF1
647 1 15 -0.74330 -6.208 2.438 10.717 #OF1
648 1 15 -0.74330 -9.532 -5.653 -6.339 #OF1
649 1 15 -0.74330 -2.440 -6.211 10.717 #OF1
650 1 15 -0.74330 -3.803 -7.686 12.682 #OF1
651 1 15 -0.74330 -10.006 -3.046 17.608 #OF1
652 1 15 -0.74330 3.804 7.682 -12.682 #OF1
653 1 15 -0.74330 -5.651 9.529 6.338 #OF1
654 1 15 -0.74330 -3.044 10.004 -17.608 #OF1
655 1 15 -0.74330 3.044 -10.008 -17.607 #OF1
656 1 15 -0.74330 -2.440 -6.211 -10.717 #OF1
657 1 15 -0.74330 -3.803 -7.686 -12.682 #OF1
658 1 15 -0.74330 -7.126 10.893 8.304 #OF1
659 1 15 -0.74330 -6.208 2.438 -10.717 #OF1
660 1 15 -0.74330 -7.684 3.801 -12.682 #OF1
661 1 15 -0.74330 -10.006 -3.046 -17.608 #OF1
662 1 15 -0.74330 -5.650 9.530 -6.339 #OF1
663 1 15 -0.74330 -7.126 10.893 -8.304 #OF1
664 1 15 -0.74330 9.532 5.649 -6.339 #OF1
665 1 15 -0.74330 3.329 10.289 -1.413 #OF1
666 1 15 -0.74330 3.329 10.289 1.413 #OF1
667 1 15 -0.74330 -7.684 3.801 12.682 #OF1
668 1 15 -0.74330 -10.290 3.327 -1.413 #OF1
669 1 15 -0.74330 -10.290 3.327 1.414 #OF1
670 1 15 -0.74330 -3.044 10.004 17.608 #OF1
671 1 15 -0.74330 2.440 6.207 10.717 #OF1
672 1 15 -0.74330 10.006 3.042 17.608 #OF1
673 1 16 -0.72100 -8.415 -8.595 4.754 #OP2
674 1 16 -0.72100 -9.482 -10.201 6.651 #OP2
675 1 16 -0.72100 0.002 -8.293 17.643 #OP2
676 1 16 -0.72100 4.920 4.740 -14.267 #OP2
677 1 16 -0.72100 -3.136 3.851 -12.370 #OP2
678 1 16 -0.72100 -4.742 4.918 -14.267 #OP2
679 1 16 -0.72100 -8.593 8.413 -4.754 #OP2
680 1 16 -0.72100 -10.199 9.480 -6.651 #OP2
681 1 16 -0.72100 -8.593 8.413 4.755 #OP2
682 1 16 -0.72100 -10.200 9.480 6.652 #OP2
683 1 16 -0.72100 -8.289 -0.004 17.643 #OP2
684 1 16 -0.72100 10.199 -9.484 -6.651 #OP2
685 1 16 -0.72100 8.291 0.000 -17.643 #OP2
686 1 16 -0.72100 3.853 3.134 -12.370 #OP2
687 1 16 -0.72100 0.002 -8.293 -17.643 #OP2
688 1 16 -0.72100 -9.482 -10.201 -6.651 #OP2
689 1 16 -0.72100 -8.415 -8.595 -4.754 #OP2
690 1 16 -0.72100 13.333 -5.046 1.378 #OP2
691 1 16 -0.72100 13.333 -5.046 -1.378 #OP2
692 1 16 -0.72100 8.593 -8.417 -4.754 #OP2
693 1 16 -0.72100 -5.044 -13.335 1.378 #OP2
694 1 16 -0.72100 -5.044 -13.335 -1.378 #OP2
695 1 16 -0.72100 4.919 4.742 14.268 #OP2
696 1 16 -0.72100 3.852 3.134 12.372 #OP2
697 1 16 -0.72100 -3.135 3.850 12.370 #OP2
698 1 16 -0.72100 -4.742 4.918 14.267 #OP2
699 1 16 -0.72100 10.199 -9.484 6.651 #OP2
700 1 16 -0.72100 8.593 -8.417 4.754 #OP2
701 1 16 -0.72100 8.291 0.000 17.643 #OP2
702 1 16 -0.72100 3.136 -3.855 -12.370 #OP2
703 1 16 -0.72100 4.742 -4.922 -14.267 #OP2
704 1 16 -0.72100 3.136 -3.855 12.370 #OP2
705 1 16 -0.72100 4.742 -4.922 14.267 #OP2
706 1 16 -0.72100 -0.002 8.289 17.643 #OP2
707 1 16 -0.72100 9.482 10.197 6.651 #OP2
708 1 16 -0.72100 -4.920 -4.744 14.267 #OP2
709 1 16 -0.72100 -3.853 -3.138 12.370 #OP2