Title

924 atoms
10 atom types
400 bonds
400 bond types

-12.8345 12.8345 xlo xhi
-12.8345 12.8345 ylo yhi
-12.8345 12.8345 zlo zhi


Atoms

1 1 1 1.85300 7.568 5.314 -7.516 #ZN
2 1 1 1.85300 5.335 -5.287 -5.283 #ZN
3 1 1 1.85300 5.335 7.547 7.551 #ZN
4 1 1 1.85300 5.335 -7.520 7.551 #ZN
5 1 1 1.85300 -5.266 7.547 -7.516 #ZN
6 1 1 1.85300 5.335 5.314 5.318 #ZN
7 1 1 1.85300 7.568 -5.287 -7.516 #ZN
8 1 1 1.85300 -5.266 -7.520 7.551 #ZN
9 1 1 1.85300 -5.266 5.314 -5.283 #ZN
10 1 1 1.85300 -5.266 -5.287 5.318 #ZN
11 1 1 1.85300 -7.499 -5.287 -7.516 #ZN
12 1 1 1.85300 7.568 -7.520 5.318 #ZN
13 1 1 1.85300 -7.499 -7.520 5.318 #ZN
14 1 1 1.85300 7.568 -5.287 7.551 #ZN
15 1 1 1.85300 7.568 7.547 5.318 #ZN
16 1 1 1.85300 5.335 -7.520 -7.516 #ZN
17 1 1 1.85300 -5.266 -7.520 -7.516 #ZN
18 1 1 1.85300 -7.499 7.547 -5.283 #ZN
19 1 1 1.85300 -7.499 -5.287 7.551 #ZN
20 1 1 1.85300 -7.499 -7.520 -5.283 #ZN
21 1 1 1.85300 -5.266 -5.287 -5.283 #ZN
22 1 1 1.85300 -7.499 5.314 7.551 #ZN
23 1 1 1.85300 -7.499 5.314 -7.516 #ZN
24 1 1 1.85300 -5.266 5.314 5.318 #ZN
25 1 1 1.85300 5.335 7.547 -7.516 #ZN
26 1 1 1.85300 5.335 -5.287 5.318 #ZN
27 1 1 1.85300 5.335 5.314 -5.283 #ZN
28 1 1 1.85300 7.568 -7.520 -5.283 #ZN
29 1 1 1.85300 7.568 7.547 -5.283 #ZN
30 1 1 1.85300 -7.499 7.547 5.318 #ZN
31 1 1 1.85300 7.568 5.314 7.551 #ZN
32 1 1 1.85300 -5.266 7.547 7.551 #ZN
33 1 2 -1.00690 3.472 7.247 7.251 #O2
34 1 2 -1.00690 -7.199 5.614 -9.380 #O2
35 1 2 -1.00690 -7.199 3.451 7.251 #O2
36 1 2 -1.00690 -9.363 7.247 -5.583 #O2
37 1 2 -1.00690 7.268 -7.220 3.455 #O2
38 1 2 -1.00690 3.472 -5.587 -5.583 #O2
39 1 2 -1.00690 7.268 3.451 -7.216 #O2
40 1 2 -1.00690 -5.566 7.247 9.415 #O2
41 1 2 -1.00690 -3.403 5.614 -5.583 #O2
42 1 2 -1.00690 7.268 3.451 7.251 #O2
43 1 2 -1.00690 7.268 -9.384 5.618 #O2
44 1 2 -1.00690 -7.199 -9.384 5.618 #O2
45 1 2 -1.00690 9.432 -5.587 -7.216 #O2
46 1 2 -1.00690 -5.566 3.451 -5.583 #O2
47 1 2 -1.00690 -5.566 9.411 -7.216 #O2
48 1 2 -1.00690 -3.403 7.247 -7.216 #O2
49 1 2 -1.00690 9.432 5.614 -7.216 #O2
50 1 2 -1.00690 5.635 -3.424 5.618 #O2
51 1 2 -1.00690 3.472 -5.587 5.618 #O2
52 1 2 -1.00690 -5.566 -7.220 -9.380 #O2
53 1 2 -1.00690 7.268 -5.587 9.415 #O2
54 1 2 -1.00690 7.268 9.411 -5.583 #O2
55 1 2 -1.00690 -3.403 -7.220 -7.216 #O2
56 1 2 -1.00690 7.268 7.247 -3.420 #O2
57 1 3 -2.25680 -6.383 -6.404 6.435 #O1
58 1 2 -1.00690 -7.199 -5.587 9.415 #O2
59 1 2 -1.00690 -3.403 -5.587 5.618 #O2
60 1 2 -1.00690 7.268 -5.587 -9.380 #O2
61 1 2 -1.00690 -5.566 -3.424 -5.583 #O2
62 1 2 -1.00690 7.268 -7.220 -3.420 #O2
63 1 2 -1.00690 9.432 5.614 7.251 #O2
64 1 2 -1.00690 5.635 -7.220 -9.380 #O2
65 1 2 -1.00690 -5.566 5.614 -3.420 #O2
66 1 2 -1.00690 5.635 -5.587 -3.420 #O2
67 1 2 -1.00690 -9.363 5.614 7.251 #O2
68 1 2 -1.00690 9.432 7.247 5.618 #O2
69 1 2 -1.00690 7.268 -9.384 -5.583 #O2
70 1 2 -1.00690 -5.566 7.247 -9.380 #O2
71 1 2 -1.00690 -5.566 -5.587 3.455 #O2
72 1 2 -1.00690 -7.199 9.411 5.618 #O2
73 1 2 -1.00690 7.268 -3.424 -7.216 #O2
74 1 2 -1.00690 -7.199 -3.424 -7.216 #O2
75 1 2 -1.00690 5.635 3.451 5.618 #O2
76 1 2 -1.00690 9.432 -7.220 5.618 #O2
77 1 2 -1.00690 -7.199 -3.424 7.251 #O2
78 1 2 -1.00690 9.432 -7.220 -5.583 #O2
79 1 2 -1.00690 -3.403 -7.220 7.251 #O2
80 1 2 -1.00690 -9.363 -5.587 7.251 #O2
81 1 3 -2.25680 -6.383 -6.404 -6.400 #O1
82 1 2 -1.00690 7.268 7.247 3.455 #O2
83 1 2 -1.00690 3.472 5.614 5.618 #O2
84 1 2 -1.00690 -9.363 5.614 -7.216 #O2
85 1 2 -1.00690 5.635 5.614 3.455 #O2
86 1 2 -1.00690 -7.199 9.411 -5.583 #O2
87 1 2 -1.00690 5.635 -5.587 3.455 #O2
88 1 2 -1.00690 -9.363 7.247 5.618 #O2
89 1 2 -1.00690 -5.566 -9.384 -7.216 #O2
90 1 2 -1.00690 -5.566 -3.424 5.618 #O2
91 1 2 -1.00690 -5.566 -7.220 9.415 #O2
92 1 2 -1.00690 5.635 7.247 9.415 #O2
93 1 2 -1.00690 -7.199 -7.220 3.455 #O2
94 1 2 -1.00690 5.635 -7.220 9.415 #O2
95 1 2 -1.00690 7.268 5.614 9.415 #O2
96 1 2 -1.00690 7.268 5.614 -9.380 #O2
97 1 2 -1.00690 -7.199 -5.587 -9.380 #O2
98 1 2 -1.00690 -7.199 7.247 -3.420 #O2
99 1 3 -2.25680 6.452 6.431 -6.400 #O1
100 1 3 -2.25680 6.452 -6.404 6.435 #O1
101 1 3 -2.25680 -6.383 6.431 6.435 #O1
102 1 2 -1.00690 5.635 9.411 -7.216 #O2
103 1 2 -1.00690 -7.199 7.247 3.455 #O2
104 1 2 -1.00690 7.268 -3.424 7.251 #O2
105 1 2 -1.00690 -7.199 3.451 -7.216 #O2
106 1 2 -1.00690 5.635 9.411 7.251 #O2
107 1 2 -1.00690 -5.566 5.614 3.455 #O2
108 1 2 -1.00690 7.268 9.411 5.618 #O2
109 1 3 -2.25680 6.452 -6.404 -6.400 #O1
110 1 3 -2.25680 -6.383 6.431 -6.400 #O1
111 1 2 -1.00690 9.432 -5.587 7.251 #O2
112 1 2 -1.00690 -3.403 7.247 7.251 #O2
113 1 2 -1.00690 -3.403 5.614 5.618 #O2
114 1 2 -1.00690 5.635 3.451 -5.583 #O2
115 1 2 -1.00690 -7.199 5.614 9.415 #O2
116 1 2 -1.00690 -3.403 -5.587 -5.583 #O2
117 1 2 -1.00690 -9.363 -5.587 -7.216 #O2
118 1 2 -1.00690 -9.363 -7.220 -5.583 #O2
119 1 2 -1.00690 5.635 7.247 -9.380 #O2
120 1 2 -1.00690 -5.566 9.411 7.251 #O2
121 1 2 -1.00690 9.432 7.247 -5.583 #O2
122 1 2 -1.00690 5.635 -9.384 -7.216 #O2
123 1 2 -1.00690 3.472 5.614 -5.583 #O2
124 1 2 -1.00690 -5.566 3.451 5.618 #O2
125 1 2 -1.00690 5.635 5.614 -3.420 #O2
126 1 2 -1.00690 -7.199 -7.220 -3.420 #O2
127 1 2 -1.00690 -7.199 -9.384 -5.583 #O2
128 1 3 -2.25680 6.452 6.431 6.435 #O1
129 1 2 -1.00690 5.635 -9.384 7.251 #O2
130 1 2 -1.00690 -9.363 -7.220 5.618 #O2
131 1 2 -1.00690 3.472 7.247 -7.216 #O2
132 1 2 -1.00690 3.472 -7.220 -7.216 #O2
133 1 2 -1.00690 -5.566 -5.587 -3.420 #O2
134 1 2 -1.00690 3.472 -7.220 7.251 #O2
135 1 2 -1.00690 5.635 -3.424 -5.583 #O2
136 1 2 -1.00690 -5.566 -9.384 7.251 #O2
137 1 4 0.14890 5.017 7.866 -11.658 #H
138 1 4 0.14890 11.709 7.866 5.000 #H
139 1 4 0.14890 -7.818 11.688 -4.965 #H
140 1 4 0.14890 5.017 7.866 11.691 #H
141 1 4 0.14890 -7.818 -1.147 7.870 #H
142 1 4 0.14890 11.709 -4.969 -7.835 #H
143 1 4 0.14890 1.195 -7.839 -7.835 #H
144 1 4 0.14890 1.195 7.866 7.870 #H
145 1 4 0.14890 1.195 4.996 -4.965 #H
146 1 4 0.14890 -4.948 11.688 -7.835 #H
147 1 4 0.14890 -4.948 -1.147 5.000 #H
148 1 4 0.14890 5.017 -11.661 7.870 #H
149 1 4 0.14890 -1.126 7.866 7.870 #H
150 1 4 0.14890 7.887 -11.661 5.000 #H
151 1 4 0.14890 -7.818 4.996 11.691 #H
152 1 4 0.14890 1.195 -7.839 7.870 #H
153 1 4 0.14890 5.017 11.688 -7.835 #H
154 1 4 0.14890 5.017 -1.147 5.000 #H
155 1 4 0.14890 -4.948 1.174 5.000 #H
156 1 4 0.14890 1.195 -4.969 -4.965 #H
157 1 4 0.14890 5.017 -1.147 -4.965 #H
158 1 4 0.14890 -11.640 -4.969 7.870 #H
159 1 4 0.14890 7.887 7.866 1.178 #H
160 1 4 0.14890 5.017 -11.661 -7.835 #H
161 1 4 0.14890 -7.818 11.688 5.000 #H
162 1 4 0.14890 5.017 -4.969 -1.143 #H
163 1 4 0.14890 5.017 1.174 -4.965 #H
164 1 4 0.14890 -4.948 -7.839 11.691 #H
165 1 4 0.14890 5.017 4.996 1.178 #H
166 1 4 0.14890 -1.126 -4.969 5.000 #H
167 1 4 0.14890 1.195 4.996 5.000 #H
168 1 4 0.14890 7.887 11.688 5.000 #H
169 1 4 0.14890 -1.126 7.866 -7.835 #H
170 1 4 0.14890 -4.948 7.866 -11.658 #H
171 1 4 0.14890 11.709 4.996 7.870 #H
172 1 4 0.14890 7.887 7.866 -1.143 #H
173 1 4 0.14890 5.017 1.174 5.000 #H
174 1 4 0.14890 7.887 -7.839 1.178 #H
175 1 4 0.14890 7.887 -4.969 11.691 #H
176 1 4 0.14890 1.195 7.866 -7.835 #H
177 1 4 0.14890 7.887 -1.147 -7.835 #H
178 1 4 0.14890 7.887 -11.661 -4.965 #H
179 1 4 0.14890 -7.818 -4.969 11.691 #H
180 1 4 0.14890 7.887 1.174 7.870 #H
181 1 4 0.14890 -1.126 -4.969 -4.965 #H
182 1 4 0.14890 11.709 -7.839 -4.965 #H
183 1 4 0.14890 -7.818 -11.661 -4.965 #H
184 1 4 0.14890 -11.640 -7.839 5.000 #H
185 1 4 0.14890 7.887 4.996 11.691 #H
186 1 4 0.14890 7.887 -7.839 -1.143 #H
187 1 4 0.14890 11.709 4.996 -7.835 #H
188 1 4 0.14890 -11.640 -7.839 -4.965 #H
189 1 4 0.14890 -11.640 7.866 -4.965 #H
190 1 4 0.14890 -11.640 4.996 7.870 #H
191 1 4 0.14890 5.017 11.688 7.870 #H
192 1 4 0.14890 -7.818 4.996 -11.658 #H
193 1 4 0.14890 11.709 -4.969 7.870 #H
194 1 4 0.14890 -7.818 -7.839 1.178 #H
195 1 4 0.14890 7.887 -1.147 7.870 #H
196 1 4 0.14890 -1.126 -7.839 7.870 #H
197 1 4 0.14890 -7.818 -11.661 5.000 #H
198 1 4 0.14890 -1.126 -7.839 -7.835 #H
199 1 4 0.14890 -4.948 4.996 1.178 #H
200 1 4 0.14890 11.709 7.866 -4.965 #H
201 1 4 0.14890 -4.948 -1.147 -4.965 #H
202 1 4 0.14890 5.017 -4.969 1.178 #H
203 1 4 0.14890 -1.126 4.996 5.000 #H
204 1 4 0.14890 -4.948 11.688 7.870 #H
205 1 4 0.14890 -4.948 -7.839 -11.658 #H
206 1 4 0.14890 -7.818 7.866 -1.143 #H
207 1 4 0.14890 7.887 11.688 -4.965 #H
208 1 4 0.14890 -7.818 7.866 1.178 #H
209 1 4 0.14890 -4.948 1.174 -4.965 #H
210 1 4 0.14890 -4.948 -4.969 -1.143 #H
211 1 4 0.14890 5.017 -7.839 11.691 #H
212 1 4 0.14890 7.887 4.996 -11.658 #H
213 1 4 0.14890 -7.818 -4.969 -11.658 #H
214 1 4 0.14890 -4.948 4.996 -1.143 #H
215 1 4 0.14890 7.887 1.174 -7.835 #H
216 1 4 0.14890 5.017 4.996 -1.143 #H
217 1 4 0.14890 -1.126 4.996 -4.965 #H
218 1 4 0.14890 5.017 -7.839 -11.658 #H
219 1 4 0.14890 -7.818 -7.839 -1.143 #H
220 1 4 0.14890 -4.948 7.866 11.691 #H
221 1 4 0.14890 -7.818 1.174 -7.835 #H
222 1 4 0.14890 -4.948 -11.661 -7.835 #H
223 1 4 0.14890 -7.818 1.174 7.870 #H
224 1 4 0.14890 1.195 -4.969 5.000 #H
225 1 4 0.14890 -11.640 4.996 -7.835 #H
226 1 4 0.14890 -7.818 -1.147 -7.835 #H
227 1 4 0.14890 -4.948 -4.969 1.178 #H
228 1 4 0.14890 11.709 -7.839 5.000 #H
229 1 4 0.14890 7.887 -4.969 -11.658 #H
230 1 4 0.14890 -4.948 -11.661 7.870 #H
231 1 4 0.14890 -11.640 7.866 5.000 #H
232 1 4 0.14890 -11.640 -4.969 -7.835 #H
233 1 5 1.09830 6.452 -9.985 -6.400 #C1
234 1 6 -0.05180 -12.125 7.280 5.585 #C3
235 1 5 1.09830 10.033 -6.404 6.435 #C1
236 1 7 -0.13780 11.488 6.431 -6.400 #C2
237 1 5 1.09830 2.871 6.431 -6.400 #C1
238 1 7 -0.13780 -1.346 6.431 6.435 #C2
239 1 7 -0.13780 1.415 6.431 -6.400 #C2
240 1 7 -0.13780 -11.419 6.431 6.435 #C2
241 1 5 1.09830 -2.802 6.431 6.435 #C1
242 1 5 1.09830 6.452 -6.404 -2.819 #C1
243 1 7 -0.13780 1.415 -6.404 6.435 #C2
244 1 5 1.09830 -6.383 -6.404 -2.819 #C1
245 1 5 1.09830 -6.383 6.431 2.854 #C1
246 1 6 -0.05180 0.710 7.280 -7.249 #C3
247 1 5 1.09830 6.452 -6.404 2.854 #C1
248 1 7 -0.13780 6.452 6.431 -11.437 #C2
249 1 7 -0.13780 -6.383 11.467 6.435 #C2
250 1 5 1.09830 -6.383 -6.404 10.015 #C1
251 1 6 -0.05180 -5.533 7.280 -12.143 #C3
252 1 7 -0.13780 -6.383 -6.404 -11.437 #C2
253 1 7 -0.13780 -6.383 -1.367 6.435 #C2
254 1 6 -0.05180 0.710 -7.253 7.284 #C3
255 1 7 -0.13780 -6.383 6.431 11.470 #C2
256 1 6 -0.05180 7.301 -5.554 -12.143 #C3
257 1 7 -0.13780 6.452 -6.404 11.470 #C2
258 1 5 1.09830 2.871 -6.404 6.435 #C1
259 1 7 -0.13780 -11.419 -6.404 -6.400 #C2
260 1 6 -0.05180 -0.641 -7.253 7.284 #C3
261 1 6 -0.05180 -7.232 -5.554 -12.143 #C3
262 1 7 -0.13780 6.452 -6.404 1.398 #C2
263 1 7 -0.13780 -6.383 6.431 1.398 #C2
264 1 7 -0.13780 6.452 6.431 -1.363 #C2
265 1 5 1.09830 6.452 6.431 -2.819 #C1
266 1 6 -0.05180 -5.533 0.689 5.585 #C3
267 1 6 -0.05180 0.710 7.280 7.284 #C3
268 1 7 -0.13780 6.452 11.467 6.435 #C2
269 1 7 -0.13780 6.452 1.394 6.435 #C2
270 1 5 1.09830 6.452 -9.985 6.435 #C1
271 1 7 -0.13780 -6.383 11.467 -6.400 #C2
272 1 6 -0.05180 5.602 5.581 0.693 #C3
273 1 5 1.09830 6.452 2.850 6.435 #C1
274 1 6 -0.05180 -5.533 -7.253 -12.143 #C3
275 1 6 -0.05180 0.710 -5.554 -5.550 #C3
276 1 7 -0.13780 6.452 6.431 1.398 #C2
277 1 7 -0.13780 6.452 -11.440 -6.400 #C2
278 1 7 -0.13780 -6.383 1.394 -6.400 #C2
279 1 5 1.09830 -6.383 2.850 -6.400 #C1
280 1 7 -0.13780 -1.346 6.431 -6.400 #C2
281 1 5 1.09830 -2.802 -6.404 6.435 #C1
282 1 7 -0.13780 11.488 -6.404 -6.400 #C2
283 1 6 -0.05180 12.194 7.280 5.585 #C3
284 1 5 1.09830 -2.802 6.431 -6.400 #C1
285 1 5 1.09830 6.452 10.012 6.435 #C1
286 1 7 -0.13780 -1.346 -6.404 6.435 #C2
287 1 7 -0.13780 1.415 6.431 6.435 #C2
288 1 7 -0.13780 1.415 -6.404 -6.400 #C2
289 1 5 1.09830 2.871 -6.404 -6.400 #C1
290 1 7 -0.13780 -11.419 -6.404 6.435 #C2
291 1 5 1.09830 2.871 6.431 6.435 #C1
292 1 7 -0.13780 -11.419 6.431 -6.400 #C2
293 1 6 -0.05180 5.602 -0.662 5.585 #C3
294 1 7 -0.13780 6.452 11.467 -6.400 #C2
295 1 5 1.09830 -2.802 -6.404 -6.400 #C1
296 1 7 -0.13780 6.452 1.394 -6.400 #C2
297 1 5 1.09830 6.452 2.850 -6.400 #C1
298 1 7 -0.13780 -6.383 -1.367 -6.400 #C2
299 1 5 1.09830 -6.383 -2.823 -6.400 #C1
300 1 6 -0.05180 -7.232 12.173 5.585 #C3
301 1 7 -0.13780 6.452 -11.440 6.435 #C2
302 1 7 -0.13780 -6.383 -11.440 -6.400 #C2
303 1 6 -0.05180 5.602 7.280 -12.143 #C3
304 1 7 -0.13780 11.488 -6.404 6.435 #C2
305 1 6 -0.05180 5.602 -7.253 12.177 #C3
306 1 7 -0.13780 -6.383 1.394 6.435 #C2
307 1 5 1.09830 -6.383 2.850 6.435 #C1
308 1 5 1.09830 6.452 6.431 2.854 #C1
309 1 7 -0.13780 -6.383 6.431 -11.437 #C2
310 1 5 1.09830 6.452 -6.404 -9.981 #C1
311 1 7 -0.13780 6.452 -6.404 -1.363 #C2
312 1 7 -0.13780 6.452 -6.404 -11.437 #C2
313 1 7 -0.13780 -6.383 -6.404 1.398 #C2
314 1 5 1.09830 -6.383 -6.404 2.854 #C1
315 1 5 1.09830 10.033 6.431 -6.400 #C1
316 1 7 -0.13780 -6.383 -6.404 11.470 #C2
317 1 7 -0.13780 6.452 -1.367 6.435 #C2
318 1 5 1.09830 6.452 -2.823 6.435 #C1
319 1 7 -0.13780 6.452 6.431 11.470 #C2
320 1 7 -0.13780 -6.383 6.431 -1.363 #C2
321 1 5 1.09830 -6.383 6.431 -2.819 #C1
322 1 6 -0.05180 5.602 12.173 7.284 #C3
323 1 6 -0.05180 -7.232 -0.662 -7.249 #C3
324 1 6 -0.05180 7.301 -5.554 12.177 #C3
325 1 6 -0.05180 -5.533 -0.662 -5.550 #C3
326 1 6 -0.05180 -5.533 5.581 -0.658 #C3
327 1 6 -0.05180 7.301 5.581 12.177 #C3
328 1 6 -0.05180 -7.232 5.581 -12.143 #C3
329 1 5 1.09830 -6.383 -9.985 6.435 #C1
330 1 6 -0.05180 12.194 -5.554 -7.249 #C3
331 1 5 1.09830 -6.383 6.431 10.015 #C1
332 1 7 -0.13780 -6.383 -11.440 6.435 #C2
333 1 6 -0.05180 -0.641 7.280 -7.249 #C3
334 1 6 -0.05180 -7.232 -12.146 5.585 #C3
335 1 6 -0.05180 -12.125 -5.554 7.284 #C3
336 1 6 -0.05180 -0.641 5.581 -5.550 #C3
337 1 6 -0.05180 5.602 -5.554 0.693 #C3
338 1 7 -0.13780 6.452 -1.367 -6.400 #C2
339 1 6 -0.05180 -0.641 -5.554 5.585 #C3
340 1 6 -0.05180 7.301 -0.662 7.284 #C3
341 1 5 1.09830 6.452 -6.404 10.015 #C1
342 1 6 -0.05180 5.602 -7.253 -12.143 #C3
343 1 6 -0.05180 5.602 0.689 -5.550 #C3
344 1 6 -0.05180 12.194 5.581 7.284 #C3
345 1 6 -0.05180 -7.232 -5.554 12.177 #C3
346 1 5 1.09830 -6.383 10.012 -6.400 #C1
347 1 6 -0.05180 0.710 -7.253 -7.249 #C3
348 1 6 -0.05180 5.602 0.689 5.585 #C3
349 1 6 -0.05180 7.301 -0.662 -7.249 #C3
350 1 6 -0.05180 -7.232 0.689 -7.249 #C3
351 1 7 -0.13780 11.488 6.431 6.435 #C2
352 1 5 1.09830 6.452 6.431 10.015 #C1
353 1 6 -0.05180 -12.125 -7.253 5.585 #C3
354 1 6 -0.05180 -7.232 12.173 -5.550 #C3
355 1 6 -0.05180 5.602 -0.662 -5.550 #C3
356 1 5 1.09830 -6.383 -2.823 6.435 #C1
357 1 6 -0.05180 -5.533 12.173 -7.249 #C3
358 1 5 1.09830 6.452 6.431 -9.981 #C1
359 1 5 1.09830 6.452 10.012 -6.400 #C1
360 1 5 1.09830 -6.383 -6.404 -9.981 #C1
361 1 6 -0.05180 5.602 7.280 12.177 #C3
362 1 6 -0.05180 12.194 -7.253 -5.550 #C3
363 1 6 -0.05180 7.301 7.280 0.693 #C3
364 1 6 -0.05180 -7.232 -7.253 0.693 #C3
365 1 6 -0.05180 -5.533 5.581 0.693 #C3
366 1 6 -0.05180 -5.533 -0.662 5.585 #C3
367 1 6 -0.05180 -5.533 -12.146 7.284 #C3
368 1 6 -0.05180 -12.125 7.280 -5.550 #C3
369 1 6 -0.05180 5.602 -12.146 -7.249 #C3
370 1 5 1.09830 10.033 6.431 6.435 #C1
371 1 6 -0.05180 -5.533 -5.554 0.693 #C3
372 1 5 1.09830 6.452 -2.823 -6.400 #C1
373 1 6 -0.05180 -12.125 5.581 7.284 #C3
374 1 6 -0.05180 -0.641 -7.253 -7.249 #C3
375 1 6 -0.05180 5.602 12.173 -7.249 #C3
376 1 6 -0.05180 -0.641 5.581 5.585 #C3
377 1 6 -0.05180 7.301 0.689 7.284 #C3
378 1 6 -0.05180 -5.533 12.173 7.284 #C3
379 1 6 -0.05180 0.710 5.581 -5.550 #C3
380 1 6 -0.05180 12.194 5.581 -7.249 #C3
381 1 6 -0.05180 -5.533 -7.253 12.177 #C3
382 1 6 -0.05180 12.194 -5.554 7.284 #C3
383 1 6 -0.05180 -7.232 0.689 7.284 #C3
384 1 5 1.09830 -9.964 -6.404 -6.400 #C1
385 1 6 -0.05180 7.301 7.280 -0.658 #C3
386 1 7 -0.13780 -1.346 -6.404 -6.400 #C2
387 1 6 -0.05180 -0.641 7.280 7.284 #C3
388 1 6 -0.05180 -7.232 -0.662 7.284 #C3
389 1 6 -0.05180 12.194 7.280 -5.550 #C3
390 1 5 1.09830 -6.383 10.012 6.435 #C1
391 1 6 -0.05180 12.194 -7.253 5.585 #C3
392 1 6 -0.05180 -5.533 7.280 12.177 #C3
393 1 6 -0.05180 -5.533 0.689 -5.550 #C3
394 1 6 -0.05180 0.710 -5.554 5.585 #C3
395 1 6 -0.05180 5.602 -12.146 7.284 #C3
396 1 6 -0.05180 -12.125 -5.554 -7.249 #C3
397 1 5 1.09830 -6.383 6.431 -9.981 #C1
398 1 6 -0.05180 -7.232 7.280 -0.658 #C3
399 1 6 -0.05180 -5.533 -12.146 -7.249 #C3
400 1 5 1.09830 -6.383 -9.985 -6.400 #C1
401 1 6 -0.05180 5.602 -5.554 -0.658 #C3
402 1 6 -0.05180 7.301 12.173 5.585 #C3
403 1 6 -0.05180 -5.533 -5.554 -0.658 #C3
404 1 6 -0.05180 7.301 -7.253 -0.658 #C3
405 1 7 -0.13780 -6.383 -6.404 -1.363 #C2
406 1 6 -0.05180 -12.125 5.581 -7.249 #C3
407 1 6 -0.05180 7.301 12.173 -5.550 #C3
408 1 5 1.09830 -9.964 6.431 -6.400 #C1
409 1 6 -0.05180 5.602 5.581 -0.658 #C3
410 1 6 -0.05180 0.710 5.581 5.585 #C3
411 1 5 1.09830 -9.964 6.431 6.435 #C1
412 1 5 1.09830 -9.964 -6.404 6.435 #C1
413 1 6 -0.05180 -7.232 -7.253 -0.658 #C3
414 1 6 -0.05180 -7.232 -12.146 -5.550 #C3
415 1 6 -0.05180 7.301 5.581 -12.143 #C3
416 1 6 -0.05180 -7.232 7.280 0.693 #C3
417 1 6 -0.05180 -0.641 -5.554 -5.550 #C3
418 1 6 -0.05180 7.301 -7.253 0.693 #C3
419 1 6 -0.05180 7.301 0.689 -7.249 #C3
420 1 6 -0.05180 7.301 -12.146 -5.550 #C3
421 1 5 1.09830 10.033 -6.404 -6.400 #C1
422 1 6 -0.05180 -7.232 5.581 12.177 #C3
423 1 6 -0.05180 -12.194 -7.253 -5.550 #C3
424 1 6 -0.05180 7.301 -12.173 5.585 #C3
425 2 8 0.77140 -0.230 -9.089 -4.159 #H2G
426 2 9 -0.38570 0.192 -9.776 -4.995 #H2E
427 2 9 -0.38570 -0.653 -8.401 -3.323 #H2E
428 2 10 0.00000 0.175 -9.747 -4.961 #H2N
429 2 10 0.00000 -0.635 -8.430 -3.358 #H2N
430 3 8 0.77140 -8.708 -1.959 3.164 #H2G
431 3 9 -0.38570 -9.356 -1.895 2.202 #H2E
432 3 9 -0.38570 -8.059 -2.023 4.126 #H2E
433 3 10 0.00000 -9.330 -1.898 2.241 #H2N
434 3 10 0.00000 -8.087 -2.020 4.086 #H2N
435 4 8 0.77140 2.795 -6.529 -2.803 #H2G
436 4 9 -0.38570 3.039 -7.518 -3.360 #H2E
437 4 9 -0.38570 2.551 -5.539 -2.245 #H2E
438 4 10 0.00000 3.029 -7.478 -3.337 #H2N
439 4 10 0.00000 2.561 -5.580 -2.268 #H2N
440 5 8 0.77140 -12.662 -11.487 11.857 #H2G
441 5 9 -0.38570 -12.321 -12.521 11.447 #H2E
442 5 9 -0.38570 -13.004 -10.455 12.266 #H2E
443 5 10 0.00000 -12.335 -12.478 11.464 #H2N
444 5 10 0.00000 -12.990 -10.497 12.249 #H2N
445 6 8 0.77140 1.526 -1.549 -5.956 #H2G
446 6 9 -0.38570 0.876 -2.223 -6.645 #H2E
447 6 9 -0.38570 2.177 -0.875 -5.269 #H2E
448 6 10 0.00000 0.903 -2.195 -6.616 #H2N
449 6 10 0.00000 2.149 -0.903 -5.297 #H2N
450 7 8 0.77140 -10.633 0.969 -4.735 #H2G
451 7 9 -0.38570 -11.228 1.435 -3.853 #H2E
452 7 9 -0.38570 -10.038 0.500 -5.617 #H2E
453 7 10 0.00000 -11.203 1.415 -3.889 #H2N
454 7 10 0.00000 -10.062 0.520 -5.580 #H2N
455 8 8 0.77140 -6.413 2.420 10.746 #H2G
456 8 9 -0.38570 -5.566 3.083 11.188 #H2E
457 8 9 -0.38570 -7.258 1.758 10.303 #H2E
458 8 10 0.00000 -5.601 3.055 11.171 #H2N
459 8 10 0.00000 -7.224 1.785 10.321 #H2N
460 9 8 0.77140 10.076 -4.803 1.821 #H2G
461 9 9 -0.38570 9.863 -5.665 1.072 #H2E
462 9 9 -0.38570 10.288 -3.942 2.570 #H2E
463 9 10 0.00000 9.872 -5.629 1.101 #H2N
464 9 10 0.00000 10.279 -3.976 2.539 #H2N
465 10 8 0.77140 0.564 11.907 2.999 #H2G
466 10 9 -0.38570 -0.022 11.399 3.864 #H2E
467 10 9 -0.38570 1.150 12.417 2.135 #H2E
468 10 10 0.00000 0.001 11.420 3.828 #H2N
469 10 10 0.00000 1.126 12.396 2.171 #H2N
470 11 8 0.77140 11.666 0.195 -7.044 #H2G
471 11 9 -0.38570 12.427 0.241 -6.168 #H2E
472 11 9 -0.38570 10.907 0.149 -7.923 #H2E
473 11 10 0.00000 12.396 0.240 -6.204 #H2N
474 11 10 0.00000 10.938 0.150 -7.887 #H2N
475 12 8 0.77140 10.343 12.829 -8.841 #H2G
476 12 9 -0.38570 9.319 12.360 -8.557 #H2E
477 12 9 -0.38570 11.367 13.298 -9.124 #H2E
478 12 10 0.00000 9.360 12.379 -8.569 #H2N
479 12 10 0.00000 11.325 13.279 -9.112 #H2N
480 13 8 0.77140 7.026 -2.310 1.335 #H2G
481 13 9 -0.38570 6.750 -1.211 1.083 #H2E
482 13 9 -0.38570 7.303 -3.409 1.588 #H2E
483 13 10 0.00000 6.761 -1.255 1.094 #H2N
484 13 10 0.00000 7.291 -3.365 1.577 #H2N
485 14 8 0.77140 -0.501 -8.033 3.422 #H2G
486 14 9 -0.38570 -0.417 -9.006 4.054 #H2E
487 14 9 -0.38570 -0.584 -7.061 2.790 #H2E
488 14 10 0.00000 -0.421 -8.965 4.028 #H2N
489 14 10 0.00000 -0.580 -7.103 2.816 #H2N
490 15 8 0.77140 6.522 -11.836 11.942 #H2G
491 15 9 -0.38570 7.281 -11.556 11.106 #H2E
492 15 9 -0.38570 5.764 -12.116 12.777 #H2E
493 15 10 0.00000 7.249 -11.568 11.141 #H2N
494 15 10 0.00000 5.796 -12.105 12.742 #H2N
495 16 8 0.77140 -6.538 -10.719 2.547 #H2G
496 16 9 -0.38570 -7.338 -10.627 1.710 #H2E
497 16 9 -0.38570 -5.738 -10.810 3.385 #H2E
498 16 10 0.00000 -7.306 -10.631 1.744 #H2N
499 16 10 0.00000 -5.772 -10.806 3.350 #H2N
500 17 8 0.77140 10.029 2.194 10.675 #H2G
501 17 9 -0.38570 10.008 2.970 11.539 #H2E
502 17 9 -0.38570 10.051 1.419 9.809 #H2E
503 17 10 0.00000 10.009 2.939 11.504 #H2N
504 17 10 0.00000 10.051 1.451 9.846 #H2N
505 18 8 0.77140 -1.999 -5.282 -9.937 #H2G
506 18 9 -0.38570 -1.945 -4.730 -8.916 #H2E
507 18 9 -0.38570 -2.053 -5.835 -10.958 #H2E
508 18 10 0.00000 -1.947 -4.752 -8.957 #H2N
509 18 10 0.00000 -2.050 -5.811 -10.916 #H2N
510 19 8 0.77140 -0.474 12.645 -6.168 #H2G
511 19 9 -0.38570 -1.141 12.983 -5.279 #H2E
512 19 9 -0.38570 0.192 12.306 -7.058 #H2E
513 19 10 0.00000 -1.113 12.970 -5.315 #H2N
514 19 10 0.00000 0.166 12.320 -7.021 #H2N
515 20 8 0.77140 4.200 -12.670 2.641 #H2G
516 20 9 -0.38570 3.459 -12.442 3.504 #H2E
517 20 9 -0.38570 4.945 -12.897 1.777 #H2E
518 20 10 0.00000 3.488 -12.451 3.470 #H2N
519 20 10 0.00000 4.915 -12.887 1.813 #H2N
520 21 8 0.77140 2.976 3.395 12.357 #H2G
521 21 9 -0.38570 2.961 4.302 11.634 #H2E
522 21 9 -0.38570 2.990 2.485 13.082 #H2E
523 21 10 0.00000 2.961 4.266 11.662 #H2N
524 21 10 0.00000 2.988 2.522 13.052 #H2N
525 22 8 0.77140 -0.954 -1.377 -11.872 #H2G
526 22 9 -0.38570 -0.966 -2.531 -11.752 #H2E
527 22 9 -0.38570 -0.941 -0.220 -11.995 #H2E
528 22 10 0.00000 -0.966 -2.485 -11.756 #H2N
529 22 10 0.00000 -0.943 -0.268 -11.991 #H2N
530 23 8 0.77140 -12.490 0.607 2.337 #H2G
531 23 9 -0.38570 -11.502 0.619 1.723 #H2E
532 23 9 -0.38570 -13.476 0.594 2.949 #H2E
533 23 10 0.00000 -11.542 0.618 1.748 #H2N
534 23 10 0.00000 -13.435 0.595 2.923 #H2N
535 24 8 0.77140 10.092 -2.771 -7.499 #H2G
536 24 9 -0.38570 10.040 -2.812 -8.660 #H2E
537 24 9 -0.38570 10.144 -2.731 -6.339 #H2E
538 24 10 0.00000 10.042 -2.810 -8.611 #H2N
539 24 10 0.00000 10.142 -2.732 -6.387 #H2N
540 25 8 0.77140 -2.052 -7.473 -1.143 #H2G
541 25 9 -0.38570 -1.251 -6.631 -1.118 #H2E
542 25 9 -0.38570 -2.852 -8.316 -1.168 #H2E
543 25 10 0.00000 -1.285 -6.666 -1.119 #H2N
544 25 10 0.00000 -2.818 -8.281 -1.167 #H2N
545 26 8 0.77140 12.542 -5.230 -1.837 #H2G
546 26 9 -0.38570 12.994 -5.161 -2.906 #H2E
547 26 9 -0.38570 12.091 -5.299 -0.769 #H2E
548 26 10 0.00000 12.976 -5.165 -2.861 #H2N
549 26 10 0.00000 12.109 -5.295 -0.814 #H2N
550 27 8 0.77140 12.054 5.607 12.032 #H2G
551 27 9 -0.38570 12.660 5.976 12.952 #H2E
552 27 9 -0.38570 11.446 5.239 11.112 #H2E
553 27 10 0.00000 12.636 5.960 12.914 #H2N
554 27 10 0.00000 11.471 5.254 11.150 #H2N
555 28 8 0.77140 9.748 9.945 -6.872 #H2G
556 28 9 -0.38570 9.071 9.187 -7.436 #H2E
557 28 9 -0.38570 10.424 10.703 -6.309 #H2E
558 28 10 0.00000 9.100 9.219 -7.413 #H2N
559 28 10 0.00000 10.397 10.673 -6.332 #H2N
560 29 8 0.77140 -2.381 1.243 9.440 #H2G
561 29 9 -0.38570 -1.368 1.559 9.915 #H2E
562 29 9 -0.38570 -3.393 0.927 8.965 #H2E
563 29 10 0.00000 -1.410 1.546 9.895 #H2N
564 29 10 0.00000 -3.351 0.940 8.984 #H2N
565 30 8 0.77140 -1.011 -1.825 5.673 #H2G
566 30 9 -0.38570 -0.929 -2.117 6.794 #H2E
567 30 9 -0.38570 -1.093 -1.532 4.551 #H2E
568 30 10 0.00000 -0.932 -2.104 6.748 #H2N
569 30 10 0.00000 -1.090 -1.544 4.598 #H2N
570 31 8 0.77140 1.424 -11.599 7.119 #H2G
571 31 9 -0.38570 1.966 -12.359 6.426 #H2E
572 31 9 -0.38570 0.880 -10.837 7.809 #H2E
573 31 10 0.00000 1.943 -12.326 6.455 #H2N
574 31 10 0.00000 0.904 -10.869 7.779 #H2N
575 32 8 0.77140 5.322 -1.712 -12.059 #H2G
576 32 9 -0.38570 5.709 -0.968 -12.863 #H2E
577 32 9 -0.38570 4.932 -2.455 -11.254 #H2E
578 32 10 0.00000 5.693 -1.000 -12.829 #H2N
579 32 10 0.00000 4.948 -2.424 -11.288 #H2N
580 33 8 0.77140 -10.262 7.959 -12.179 #H2G
581 33 9 -0.38570 -10.654 7.689 -11.119 #H2E
582 33 9 -0.38570 -9.870 8.229 -13.239 #H2E
583 33 10 0.00000 -10.637 7.700 -11.164 #H2N
584 33 10 0.00000 -9.886 8.218 -13.196 #H2N
585 34 8 0.77140 -9.703 9.708 7.073 #H2G
586 34 9 -0.38570 -9.041 9.100 7.810 #H2E
587 34 9 -0.38570 -10.364 10.315 6.335 #H2E
588 34 10 0.00000 -9.069 9.126 7.779 #H2N
589 34 10 0.00000 -10.337 10.290 6.366 #H2N
590 35 8 0.77140 -2.439 5.613 2.909 #H2G
591 35 9 -0.38570 -2.328 6.762 3.050 #H2E
592 35 9 -0.38570 -2.551 4.466 2.767 #H2E
593 35 10 0.00000 -2.334 6.714 3.044 #H2N
594 35 10 0.00000 -2.546 4.514 2.772 #H2N
595 36 8 0.77140 -0.994 1.525 -4.583 #H2G
596 36 9 -0.38570 -0.846 2.553 -4.062 #H2E
597 36 9 -0.38570 -1.142 0.498 -5.105 #H2E
598 36 10 0.00000 -0.853 2.510 -4.084 #H2N
599 36 10 0.00000 -1.136 0.539 -5.083 #H2N
600 37 8 0.77140 12.728 1.917 5.804 #H2G
601 37 9 -0.38570 13.006 2.921 5.289 #H2E
602 37 9 -0.38570 12.449 0.913 6.318 #H2E
603 37 10 0.00000 12.993 2.880 5.310 #H2N
604 37 10 0.00000 12.460 0.954 6.296 #H2N
605 38 8 0.77140 9.431 0.126 3.894 #H2G
606 38 9 -0.38570 9.787 0.749 4.808 #H2E
607 38 9 -0.38570 9.074 -0.497 2.979 #H2E
608 38 10 0.00000 9.772 0.724 4.770 #H2N
609 38 10 0.00000 9.088 -0.471 3.018 #H2N
610 39 8 0.77140 5.822 2.514 -10.582 #H2G
611 39 9 -0.38570 5.608 2.185 -9.489 #H2E
612 39 9 -0.38570 6.036 2.844 -11.677 #H2E
613 39 10 0.00000 5.617 2.198 -9.534 #H2N
614 39 10 0.00000 6.027 2.830 -11.632 #H2N
615 40 8 0.77140 2.207 11.839 10.144 #H2G
616 40 9 -0.38570 2.481 12.948 9.927 #H2E
617 40 9 -0.38570 1.930 10.731 10.359 #H2E
618 40 10 0.00000 2.471 12.902 9.937 #H2N
619 40 10 0.00000 1.942 10.777 10.351 #H2N
620 41 8 0.77140 -6.035 11.495 1.829 #H2G
621 41 9 -0.38570 -6.535 12.360 2.422 #H2E
622 41 9 -0.38570 -5.536 10.628 1.236 #H2E
623 41 10 0.00000 -6.514 12.325 2.398 #H2N
624 41 10 0.00000 -5.557 10.664 1.261 #H2N
625 42 8 0.77140 5.081 -10.697 -10.216 #H2G
626 42 9 -0.38570 3.951 -10.718 -9.952 #H2E
627 42 9 -0.38570 6.213 -10.676 -10.480 #H2E
628 42 10 0.00000 3.998 -10.717 -9.961 #H2N
629 42 10 0.00000 6.166 -10.677 -10.469 #H2N
630 43 8 0.77140 9.823 0.460 -11.539 #H2G
631 43 9 -0.38570 10.175 0.221 -12.621 #H2E
632 43 9 -0.38570 9.471 0.701 -10.458 #H2E
633 43 10 0.00000 10.161 0.231 -12.576 #H2N
634 43 10 0.00000 9.486 0.690 -10.504 #H2N
635 44 8 0.77140 1.466 9.028 -10.884 #H2G
636 44 9 -0.38570 0.669 9.044 -10.039 #H2E
637 44 9 -0.38570 2.261 9.013 -11.731 #H2E
638 44 10 0.00000 0.702 9.044 -10.074 #H2N
639 44 10 0.00000 2.228 9.014 -11.696 #H2N
640 45 8 0.77140 10.461 8.106 9.465 #H2G
641 45 9 -0.38570 11.250 8.072 10.320 #H2E
642 45 9 -0.38570 9.673 8.140 8.613 #H2E
643 45 10 0.00000 11.217 8.073 10.284 #H2N
644 45 10 0.00000 9.707 8.139 8.648 #H2N
645 46 8 0.77140 3.957 -9.707 9.647 #H2G
646 46 9 -0.38570 4.735 -10.216 10.345 #H2E
647 46 9 -0.38570 3.179 -9.200 8.948 #H2E
648 46 10 0.00000 4.703 -10.195 10.315 #H2N
649 46 10 0.00000 3.211 -9.221 8.977 #H2N
650 47 8 0.77140 -2.964 6.241 10.077 #H2G
651 47 9 -0.38570 -2.755 7.367 10.279 #H2E
652 47 9 -0.38570 -3.171 5.116 9.877 #H2E
653 47 10 0.00000 -2.764 7.320 10.271 #H2N
654 47 10 0.00000 -3.162 5.164 9.883 #H2N
655 48 8 0.77140 -11.927 -10.539 -7.119 #H2G
656 48 9 -0.38570 -11.254 -10.562 -8.066 #H2E
657 48 9 -0.38570 -12.599 -10.515 -6.172 #H2E
658 48 10 0.00000 -11.282 -10.562 -8.027 #H2N
659 48 10 0.00000 -12.572 -10.516 -6.211 #H2N
660 49 8 0.77140 -0.294 -10.884 10.242 #H2G
661 49 9 -0.38570 -0.104 -9.782 10.556 #H2E
662 49 9 -0.38570 -0.485 -11.986 9.929 #H2E
663 49 10 0.00000 -0.111 -9.827 10.544 #H2N
664 49 10 0.00000 -0.477 -11.942 9.941 #H2N
665 50 8 0.77140 10.071 -9.934 -5.704 #H2G
666 50 9 -0.38570 9.950 -10.120 -4.564 #H2E
667 50 9 -0.38570 10.191 -9.749 -6.845 #H2E
668 50 10 0.00000 9.955 -10.112 -4.611 #H2N
669 50 10 0.00000 10.186 -9.757 -6.798 #H2N
670 51 8 0.77140 9.575 4.328 3.568 #H2G
671 51 9 -0.38570 8.545 4.576 4.046 #H2E
672 51 9 -0.38570 10.604 4.082 3.089 #H2E
673 51 10 0.00000 8.587 4.565 4.027 #H2N
674 51 10 0.00000 10.563 4.092 3.108 #H2N
675 52 8 0.77140 2.719 -2.586 -3.053 #H2G
676 52 9 -0.38570 1.717 -2.734 -3.619 #H2E
677 52 9 -0.38570 3.724 -2.437 -2.486 #H2E
678 52 10 0.00000 1.757 -2.728 -3.595 #H2N
679 52 10 0.00000 3.682 -2.445 -2.510 #H2N
680 53 8 0.77140 -9.652 -5.637 2.958 #H2G
681 53 9 -0.38570 -9.206 -4.714 3.505 #H2E
682 53 9 -0.38570 -10.098 -6.560 2.412 #H2E
683 53 10 0.00000 -9.224 -4.753 3.483 #H2N
684 53 10 0.00000 -10.079 -6.523 2.434 #H2N
685 54 8 0.77140 -5.996 -2.316 -2.487 #H2G
686 54 9 -0.38570 -4.951 -2.735 -2.205 #H2E
687 54 9 -0.38570 -7.044 -1.896 -2.771 #H2E
688 54 10 0.00000 -4.994 -2.717 -2.217 #H2N
689 54 10 0.00000 -6.999 -1.913 -2.760 #H2N
690 55 8 0.77140 -1.706 10.693 6.228 #H2G
691 55 9 -0.38570 -0.896 11.130 6.938 #H2E
692 55 9 -0.38570 -2.515 10.257 5.516 #H2E
693 55 10 0.00000 -0.930 11.112 6.909 #H2N
694 55 10 0.00000 -2.482 10.275 5.546 #H2N
695 56 8 0.77140 12.713 -8.877 9.717 #H2G
696 56 9 -0.38570 13.162 -9.933 9.894 #H2E
697 56 9 -0.38570 12.262 -7.820 9.540 #H2E
698 56 10 0.00000 13.143 -9.889 9.886 #H2N
699 56 10 0.00000 12.281 -7.863 9.548 #H2N
700 57 8 0.77140 -9.881 -10.518 9.043 #H2G
701 57 9 -0.38570 -9.477 -11.233 9.863 #H2E
702 57 9 -0.38570 -10.287 -9.804 8.220 #H2E
703 57 10 0.00000 -9.493 -11.203 9.830 #H2N
704 57 10 0.00000 -10.269 -9.832 8.256 #H2N
705 58 8 0.77140 -11.506 0.242 -1.331 #H2G
706 58 9 -0.38570 -12.548 0.671 -1.047 #H2E
707 58 9 -0.38570 -10.464 -0.188 -1.615 #H2E
708 58 10 0.00000 -12.505 0.653 -1.059 #H2N
709 58 10 0.00000 -10.507 -0.170 -1.604 #H2N
710 59 8 0.77140 -3.542 -2.721 12.335 #H2G
711 59 9 -0.38570 -3.985 -3.758 12.617 #H2E
712 59 9 -0.38570 -3.100 -1.684 12.054 #H2E
713 59 10 0.00000 -3.968 -3.715 12.604 #H2N
714 59 10 0.00000 -3.117 -1.727 12.065 #H2N
715 60 8 0.77140 -3.171 8.614 -3.413 #H2G
716 60 9 -0.38570 -2.021 8.710 -3.281 #H2E
717 60 9 -0.38570 -4.322 8.519 -3.546 #H2E
718 60 10 0.00000 -2.068 8.706 -3.287 #H2N
719 60 10 0.00000 -4.275 8.523 -3.541 #H2N
720 61 8 0.77140 2.416 10.250 -7.022 #H2G
721 61 9 -0.38570 2.800 10.372 -5.931 #H2E
722 61 9 -0.38570 2.033 10.126 -8.111 #H2E
723 61 10 0.00000 2.784 10.366 -5.977 #H2N
724 61 10 0.00000 2.049 10.131 -8.067 #H2N
725 62 8 0.77140 11.768 -4.220 -11.790 #H2G