ITEM: TIMESTEP
0
ITEM: NUMBER OF ATOMS
500
ITEM: BOX BOUNDS pp pp pp
-12.8345 12.8345
-12.8345 12.8345
-12.8345 12.8345
ITEM: ATOMS x y z type mol 
-0.23 -9.089 -4.159 8 2 
0.192 -9.776 -4.995 9 2 
-0.653 -8.401 -3.323 9 2 
0.175 -9.747 -4.961 10 2 
-0.635 -8.43 -3.358 10 2 
-8.708 -1.959 3.164 8 3 
-9.356 -1.895 2.202 9 3 
-8.059 -2.023 4.126 9 3 
-9.33 -1.898 2.241 10 3 
-8.087 -2.02 4.086 10 3 
2.795 -6.529 -2.803 8 4 
3.039 -7.518 -3.36 9 4 
2.551 -5.539 -2.245 9 4 
3.029 -7.478 -3.337 10 4 
2.561 -5.58 -2.268 10 4 
-12.662 -11.487 11.857 8 5 
-12.321 -12.521 11.447 9 5 
12.665 -10.455 12.266 9 5 
-12.335 -12.478 11.464 10 5 
12.679 -10.497 12.249 10 5 
1.526 -1.549 -5.956 8 6 
0.876 -2.223 -6.645 9 6 
2.177 -0.875 -5.269 9 6 
0.903 -2.195 -6.616 10 6 
2.149 -0.903 -5.297 10 6 
-10.633 0.969 -4.735 8 7 
-11.228 1.435 -3.853 9 7 
-10.038 0.5 -5.617 9 7 
-11.203 1.415 -3.889 10 7 
-10.062 0.52 -5.58 10 7 
-6.413 2.42 10.746 8 8 
-5.566 3.083 11.188 9 8 
-7.258 1.758 10.303 9 8 
-5.601 3.055 11.171 10 8 
-7.224 1.785 10.321 10 8 
10.076 -4.803 1.821 8 9 
9.863 -5.665 1.072 9 9 
10.288 -3.942 2.57 9 9 
9.872 -5.629 1.101 10 9 
10.279 -3.976 2.539 10 9 
0.564 11.907 2.999 8 10 
-0.022 11.399 3.864 9 10 
1.15 12.417 2.135 9 10 
0.001 11.42 3.828 10 10 
1.126 12.396 2.171 10 10 
11.666 0.195 -7.044 8 11 
12.427 0.241 -6.168 9 11 
10.907 0.149 -7.923 9 11 
12.396 0.24 -6.204 10 11 
10.938 0.15 -7.887 10 11 
10.343 12.829 -8.841 8 12 
9.319 12.36 -8.557 9 12 
11.367 -12.371 -9.124 9 12 
9.36 12.379 -8.569 10 12 
11.325 -12.39 -9.112 10 12 
7.026 -2.31 1.335 8 13 
6.75 -1.211 1.083 9 13 
7.303 -3.409 1.588 9 13 
6.761 -1.255 1.094 10 13 
7.291 -3.365 1.577 10 13 
-0.501 -8.033 3.422 8 14 
-0.417 -9.006 4.054 9 14 
-0.584 -7.061 2.79 9 14 
-0.421 -8.965 4.028 10 14 
-0.58 -7.103 2.816 10 14 
6.522 -11.836 11.942 8 15 
7.281 -11.556 11.106 9 15 
5.764 -12.116 12.777 9 15 
7.249 -11.568 11.141 10 15 
5.796 -12.105 12.742 10 15 
-6.538 -10.719 2.547 8 16 
-7.338 -10.627 1.71 9 16 
-5.738 -10.81 3.385 9 16 
-7.306 -10.631 1.744 10 16 
-5.772 -10.806 3.35 10 16 
10.029 2.194 10.675 8 17 
10.008 2.97 11.539 9 17 
10.051 1.419 9.809 9 17 
10.009 2.939 11.504 10 17 
10.051 1.451 9.846 10 17 
-1.999 -5.282 -9.937 8 18 
-1.945 -4.73 -8.916 9 18 
-2.053 -5.835 -10.958 9 18 
-1.947 -4.752 -8.957 10 18 
-2.05 -5.811 -10.916 10 18 
-0.474 12.645 -6.168 8 19 
-1.141 -12.686 -5.279 9 19 
0.192 12.306 -7.058 9 19 
-1.113 -12.699 -5.315 10 19 
0.166 12.32 -7.021 10 19 
4.2 -12.67 2.641 8 20 
3.459 -12.442 3.504 9 20 
4.945 12.772 1.777 9 20 
3.488 -12.451 3.47 10 20 
4.915 12.782 1.813 10 20 
2.976 3.395 12.357 8 21 
2.961 4.302 11.634 9 21 
2.99 2.485 -12.587 9 21 
2.961 4.266 11.662 10 21 
2.988 2.522 -12.617 10 21 
-0.954 -1.377 -11.872 8 22 
-0.966 -2.531 -11.752 9 22 
-0.941 -0.22 -11.995 9 22 
-0.966 -2.485 -11.756 10 22 
-0.943 -0.268 -11.991 10 22 
-12.49 0.607 2.337 8 23 
-11.502 0.619 1.723 9 23 
12.193 0.594 2.949 9 23 
-11.542 0.618 1.748 10 23 
12.234 0.595 2.923 10 23 
10.092 -2.771 -7.499 8 24 
10.04 -2.812 -8.66 9 24 
10.144 -2.731 -6.339 9 24 
10.042 -2.81 -8.611 10 24 
10.142 -2.732 -6.387 10 24 
-2.052 -7.473 -1.143 8 25 
-1.251 -6.631 -1.118 9 25 
-2.852 -8.316 -1.168 9 25 
-1.285 -6.666 -1.119 10 25 
-2.818 -8.281 -1.167 10 25 
12.542 -5.23 -1.837 8 26 
-12.675 -5.161 -2.906 9 26 
12.091 -5.299 -0.769 9 26 
-12.693 -5.165 -2.861 10 26 
12.109 -5.295 -0.814 10 26 
12.054 5.607 12.032 8 27 
12.66 5.976 -12.717 9 27 
11.446 5.239 11.112 9 27 
12.636 5.96 -12.755 10 27 
11.471 5.254 11.15 10 27 
9.748 9.945 -6.872 8 28 
9.071 9.187 -7.436 9 28 
10.424 10.703 -6.309 9 28 
9.1 9.219 -7.413 10 28 
10.397 10.673 -6.332 10 28 
-2.381 1.243 9.44 8 29 
-1.368 1.559 9.915 9 29 
-3.393 0.927 8.965 9 29 
-1.41 1.546 9.895 10 29 
-3.351 0.94 8.984 10 29 
-1.011 -1.825 5.673 8 30 
-0.929 -2.117 6.794 9 30 
-1.093 -1.532 4.551 9 30 
-0.932 -2.104 6.748 10 30 
-1.09 -1.544 4.598 10 30 
1.424 -11.599 7.119 8 31 
1.966 -12.359 6.426 9 31 
0.88 -10.837 7.809 9 31 
1.943 -12.326 6.455 10 31 
0.904 -10.869 7.779 10 31 
5.322 -1.712 -12.059 8 32 
5.709 -0.968 12.806 9 32 
4.932 -2.455 -11.254 9 32 
5.693 -1 -12.829 10 32 
4.948 -2.424 -11.288 10 32 
-10.262 7.959 -12.179 8 33 
-10.654 7.689 -11.119 9 33 
-9.87 8.229 12.43 9 33 
-10.637 7.7 -11.164 10 33 
-9.886 8.218 12.473 10 33 
-9.703 9.708 7.073 8 34 
-9.041 9.1 7.81 9 34 
-10.364 10.315 6.335 9 34 
-9.069 9.126 7.779 10 34 
-10.337 10.29 6.366 10 34 
-2.439 5.613 2.909 8 35 
-2.328 6.762 3.05 9 35 
-2.551 4.466 2.767 9 35 
-2.334 6.714 3.044 10 35 
-2.546 4.514 2.772 10 35 
-0.994 1.525 -4.583 8 36 
-0.846 2.553 -4.062 9 36 
-1.142 0.498 -5.105 9 36 
-0.853 2.51 -4.084 10 36 
-1.136 0.539 -5.083 10 36 
12.728 1.917 5.804 8 37 
-12.663 2.921 5.289 9 37 
12.449 0.913 6.318 9 37 
-12.676 2.88 5.31 10 37 
12.46 0.954 6.296 10 37 
9.431 0.126 3.894 8 38 
9.787 0.749 4.808 9 38 
9.074 -0.497 2.979 9 38 
9.772 0.724 4.77 10 38 
9.088 -0.471 3.018 10 38 
5.822 2.514 -10.582 8 39 
5.608 2.185 -9.489 9 39 
6.036 2.844 -11.677 9 39 
5.617 2.198 -9.534 10 39 
6.027 2.83 -11.632 10 39 
2.207 11.839 10.144 8 40 
2.481 -12.721 9.927 9 40 
1.93 10.731 10.359 9 40 
2.471 -12.767 9.937 10 40 
1.942 10.777 10.351 10 40 
-6.035 11.495 1.829 8 41 
-6.535 12.36 2.422 9 41 
-5.536 10.628 1.236 9 41 
-6.514 12.325 2.398 10 41 
-5.557 10.664 1.261 10 41 
5.081 -10.697 -10.216 8 42 
3.951 -10.718 -9.952 9 42 
6.213 -10.676 -10.48 9 42 
3.998 -10.717 -9.961 10 42 
6.166 -10.677 -10.469 10 42 
9.823 0.46 -11.539 8 43 
10.175 0.221 -12.621 9 43 
9.471 0.701 -10.458 9 43 
10.161 0.231 -12.576 10 43 
9.486 0.69 -10.504 10 43 
1.466 9.028 -10.884 8 44 
0.669 9.044 -10.039 9 44 
2.261 9.013 -11.731 9 44 
0.702 9.044 -10.074 10 44 
2.228 9.014 -11.696 10 44 
10.461 8.106 9.465 8 45 
11.25 8.072 10.32 9 45 
9.673 8.14 8.613 9 45 
11.217 8.073 10.284 10 45 
9.707 8.139 8.648 10 45 
3.957 -9.707 9.647 8 46 
4.735 -10.216 10.345 9 46 
3.179 -9.2 8.948 9 46 
4.703 -10.195 10.315 10 46 
3.211 -9.221 8.977 10 46 
-2.964 6.241 10.077 8 47 
-2.755 7.367 10.279 9 47 
-3.171 5.116 9.877 9 47 
-2.764 7.32 10.271 10 47 
-3.162 5.164 9.883 10 47 
-11.927 -10.539 -7.119 8 48 
-11.254 -10.562 -8.066 9 48 
-12.599 -10.515 -6.172 9 48 
-11.282 -10.562 -8.027 10 48 
-12.572 -10.516 -6.211 10 48 
-0.294 -10.884 10.242 8 49 
-0.104 -9.782 10.556 9 49 
-0.485 -11.986 9.929 9 49 
-0.111 -9.827 10.544 10 49 
-0.477 -11.942 9.941 10 49 
10.071 -9.934 -5.704 8 50 
9.95 -10.12 -4.564 9 50 
10.191 -9.749 -6.845 9 50 
9.955 -10.112 -4.611 10 50 
10.186 -9.757 -6.798 10 50 
9.575 4.328 3.568 8 51 
8.545 4.576 4.046 9 51 
10.604 4.082 3.089 9 51 
8.587 4.565 4.027 10 51 
10.563 4.092 3.108 10 51 
2.719 -2.586 -3.053 8 52 
1.717 -2.734 -3.619 9 52 
3.724 -2.437 -2.486 9 52 
1.757 -2.728 -3.595 10 52 
3.682 -2.445 -2.51 10 52 
-9.652 -5.637 2.958 8 53 
-9.206 -4.714 3.505 9 53 
-10.098 -6.56 2.412 9 53 
-9.224 -4.753 3.483 10 53 
-10.079 -6.523 2.434 10 53 
-5.996 -2.316 -2.487 8 54 
-4.951 -2.735 -2.205 9 54 
-7.044 -1.896 -2.771 9 54 
-4.994 -2.717 -2.217 10 54 
-6.999 -1.913 -2.76 10 54 
-1.706 10.693 6.228 8 55 
-0.896 11.13 6.938 9 55 
-2.515 10.257 5.516 9 55 
-0.93 11.112 6.909 10 55 
-2.482 10.275 5.546 10 55 
12.713 -8.877 9.717 8 56 
-12.507 -9.933 9.894 9 56 
12.262 -7.82 9.54 9 56 
-12.526 -9.889 9.886 10 56 
12.281 -7.863 9.548 10 56 
-9.881 -10.518 9.043 8 57 
-9.477 -11.233 9.863 9 57 
-10.287 -9.804 8.22 9 57 
-9.493 -11.203 9.83 10 57 
-10.269 -9.832 8.256 10 57 
-11.506 0.242 -1.331 8 58 
-12.548 0.671 -1.047 9 58 
-10.464 -0.188 -1.615 9 58 
-12.505 0.653 -1.059 10 58 
-10.507 -0.17 -1.604 10 58 
-3.542 -2.721 12.335 8 59 
-3.985 -3.758 12.617 9 59 
-3.1 -1.684 12.054 9 59 
-3.968 -3.715 12.604 10 59 
-3.117 -1.727 12.065 10 59 
-3.171 8.614 -3.413 8 60 
-2.021 8.71 -3.281 9 60 
-4.322 8.519 -3.546 9 60 
-2.068 8.706 -3.287 10 60 
-4.275 8.523 -3.541 10 60 
2.416 10.25 -7.022 8 61 
2.8 10.372 -5.931 9 61 
2.033 10.126 -8.111 9 61 
2.784 10.366 -5.977 10 61 
2.049 10.131 -8.067 10 61 
11.768 -4.22 -11.79 8 62 
11.91 -4.013 -10.654 9 62 
11.629 -4.427 12.745 9 62 
11.904 -4.022 -10.701 10 62 
11.634 -4.419 12.792 10 62 
2.93 6.282 -2.567 8 63 
3.459 7.302 -2.735 9 63 
2.402 5.26 -2.397 9 63 
3.437 7.259 -2.728 10 63 
2.423 5.303 -2.404 10 63 
8.733 4.301 -3.584 8 64 
9.305 3.912 -2.648 9 64 
8.162 4.691 -4.517 9 64 
9.281 3.928 -2.687 10 64 
8.186 4.674 -4.478 10 64 
-2.176 -10.851 1.461 8 65 
-2.971 -11.693 1.379 9 65 
-1.38 -10.008 1.542 9 65 
-2.937 -11.659 1.382 10 65 
-1.413 -10.044 1.54 10 65 
-2.707 -11.525 -3.236 8 66 
-3.658 -12.017 -3.689 9 66 
-1.758 -11.033 -2.782 9 66 
-3.618 -11.996 -3.671 10 66 
-1.798 -11.052 -2.8 10 66 
8.319 -1.68 11.59 8 67 
8.7 -2.426 12.397 9 67 
7.937 -0.934 10.785 9 67 
8.685 -2.394 12.363 10 67 
7.952 -0.965 10.819 10 67 
0.407 1.152 -8.816 8 68 
0.933 1.35 -9.833 9 68 
-0.119 0.953 -7.799 9 68 
0.912 1.342 -9.791 10 68 
-0.097 0.961 -7.841 10 68 
-10.687 11.033 3.067 8 69 
-9.99 11.963 3.061 9 69 
-11.383 10.103 3.074 9 69 
-10.018 11.925 3.061 10 69 
-11.354 10.141 3.073 10 69 
-1.493 -8.807 -11.056 8 70 
-2.349 -8.758 -11.841 9 70 
-0.636 -8.857 -10.273 9 70 
-2.313 -8.76 -11.81 10 70 
-0.671 -8.854 -10.305 10 70 
-1.93 -4.262 2.065 8 71 
-2.674 -4.806 1.356 9 71 
-1.188 -3.718 2.774 9 71 
-2.643 -4.783 1.386 10 71 
-1.219 -3.74 2.744 10 71 
-5.643 11.445 -11.406 8 72 
-6.265 12.42 -11.293 9 72 
-5.022 10.47 -11.519 9 72 
-6.239 12.38 -11.297 10 72 
-5.047 10.511 -11.515 10 72 
9.334 -4.222 -3.974 8 73 
10.373 -3.909 -3.56 9 73 
8.295 -4.536 -4.389 9 73 
10.33 -3.922 -3.577 10 73 
8.337 -4.522 -4.371 10 73 
-11.326 6.794 0.861 8 74 
-12.299 7.141 1.393 9 74 
-10.352 6.447 0.33 9 74 
-12.259 7.127 1.369 10 74 
-10.393 6.462 0.351 10 74 
-2.362 2.304 5.415 8 75 
-2.264 2.926 6.392 9 75 
-2.459 1.682 4.439 9 75 
-2.268 2.9 6.353 10 75 
-2.455 1.708 4.48 10 75 
-10.783 -3.685 -10.341 8 76 
-10.371 -2.617 -10.544 9 76 
-11.195 -4.751 -10.137 9 76 
-10.388 -2.662 -10.535 10 76 
-11.18 -4.708 -10.146 10 76 
2.886 10.589 6.488 8 77 
2.255 10.691 7.458 9 77 
3.519 10.489 5.518 9 77 
2.281 10.686 7.419 10 77 
3.492 10.494 5.558 10 77 
-9.889 -10.172 3.494 8 78 
-9.423 -9.542 2.636 9 78 
-10.356 -10.802 4.352 9 78 
-9.443 -9.568 2.67 10 78 
-10.336 -10.777 4.315 10 78 
0.902 10.035 -0.987 8 79 
0.963 9.08 -0.326 9 79 
0.842 10.99 -1.648 9 79 
0.961 9.12 -0.354 10 79 
0.845 10.95 -1.62 10 79 
3.287 -12.321 -3.574 8 80 
3.539 -12.09 -4.685 9 80 
3.035 -12.551 -2.462 9 80 
3.528 -12.099 -4.638 10 80 
3.047 -12.542 -2.508 10 80 
-1.403 -1.984 -3.196 8 81 
-1.886 -2.952 -3.621 9 81 
-0.92 -1.015 -2.771 9 81 
-1.866 -2.912 -3.604 10 81 
-0.939 -1.056 -2.789 10 81 
-6.828 2.714 -10.104 8 82 
-7.904 2.637 -10.533 9 82 
-5.751 2.789 -9.673 9 82 
-7.859 2.641 -10.516 10 82 
-5.795 2.786 -9.692 10 82 
6.369 11.418 -0.674 8 83 
6.606 12.259 -1.439 9 83 
6.132 10.576 0.092 9 83 
6.596 12.224 -1.407 10 83 
6.141 10.611 0.06 10 83 
-9.16 -3.351 -4.514 8 84 
-8.599 -4.354 -4.678 9 84 
-9.721 -2.347 -4.349 9 84 
-8.621 -4.313 -4.672 10 84 
-9.697 -2.389 -4.355 10 84 
-3.415 3.281 -2.826 8 85 
-4.027 2.432 -3.331 9 85 
-2.805 4.131 -2.323 9 85 
-4.002 2.466 -3.311 10 85 
-2.831 4.097 -2.343 10 85 
-10.087 6.154 -2.979 8 86 
-10.583 7.119 -2.563 9 86 
-9.59 5.19 -3.393 9 86 
-10.563 7.08 -2.58 10 86 
-9.61 5.229 -3.375 10 86 
9.896 -12.061 9.483 8 87 
9.23 -12.614 8.708 9 87 
10.563 -11.509 10.259 9 87 
9.258 -12.592 8.741 10 87 
10.536 -11.531 10.227 10 87 
10.489 -2.128 6.687 8 88 
9.92 -2.005 5.681 9 88 
11.058 -2.251 7.693 9 88 
9.944 -2.01 5.722 10 88 
11.034 -2.246 7.651 10 88 
-3.962 -8.309 3.658 8 89 
-3.328 -8.649 2.746 9 89 
-4.598 -7.968 4.569 9 89 
-3.354 -8.635 2.784 10 89 
-4.572 -7.982 4.532 10 89 
2.82 -0.06 2.618 8 90 
1.724 -0.381 2.834 9 90 
3.916 0.26 2.401 9 90 
1.769 -0.367 2.825 10 90 
3.87 0.245 2.411 10 90 
-8.933 3.221 4.322 8 91 
-9.016 2.065 4.408 9 91 
-8.85 4.378 4.238 9 91 
-9.013 2.113 4.404 10 91 
-8.855 4.329 4.242 10 91 
-2.739 4.9 -12.351 8 92 
-2.648 5.635 12.423 9 92 
-2.83 4.165 -11.456 9 92 
-2.653 5.605 12.46 10 92 
-2.826 4.195 -11.492 10 92 
-11.922 11.281 -12.031 8 93 
-11.434 10.376 -12.575 9 93 
-12.408 12.185 -11.488 9 93 
-11.454 10.413 -12.552 10 93 
-12.389 12.147 -11.511 10 93 
-4.968 -3.553 -9.068 8 94 
-4.614 -4.492 -8.482 9 94 
-5.321 -2.613 -9.652 9 94 
-4.628 -4.453 -8.506 10 94 
-5.307 -2.651 -9.628 10 94 
-11.97 -3.2 4.195 8 95 
-12.546 -4.121 3.781 9 95 
-11.392 -2.282 4.608 9 95 
-12.523 -4.083 3.798 10 95 
-11.416 -2.32 4.591 10 95 
-2.729 -8.032 9.829 8 96 
-2.979 -9.086 9.411 9 96 
-2.478 -6.977 10.247 9 96 
-2.968 -9.043 9.428 10 96 
-2.489 -7.02 10.23 10 96 
9.955 -6.421 10.1 8 97 
10.475 -5.453 10.481 9 97 
9.436 -7.388 9.72 9 97 
10.454 -5.493 10.465 10 97 
9.457 -7.348 9.736 10 97 
12.716 -7.883 -10.928 8 98 
12.421 -8.807 -10.287 9 98 
-12.656 -6.96 -11.568 9 98 
12.432 -8.768 -10.315 10 98 
-12.668 -6.998 -11.542 10 98 
10.255 8.29 2.739 8 99 
10.288 9.451 2.767 9 99 
10.223 7.128 2.711 9 99 
10.286 9.402 2.766 10 99 
10.225 7.176 2.712 10 99 
2.642 4.41 -9.827 8 100 
3.722 4.567 -10.224 9 100 
1.56 4.255 -9.431 9 100 
3.677 4.56 -10.208 10 100 
1.605 4.261 -9.447 10 100 
-1.687 0.505 -0.228 8 101 
-0.796 1.23 -0.052 9 101 
-2.576 -0.221 -0.405 9 101 
-0.833 1.2 -0.059 10 101 
-2.539 -0.191 -0.399 10 101 
ITEM: TIMESTEP
4
ITEM: NUMBER OF ATOMS
500
ITEM: BOX BOUNDS pp pp pp
-12.8345 12.8345
-12.8345 12.8345
-12.8345 12.8345
ITEM: ATOMS x y z type mol 
-0.226608 -9.08902 -4.15327 8 2 
0.20094 -9.76941 -4.99185 9 2 
-0.655162 -8.40763 -3.31469 9 2 
0.183709 -9.74068 -4.95774 10 2 
-0.636929 -8.43635 -3.3498 10 2 
-8.7097 -1.96423 3.16568 8 3 
-9.3626 -1.88064 2.20851 9 3 
-8.0558 -2.04782 4.12285 9 3 
-9.3364 -1.88443 2.24731 10 3 
-8.084 -2.044 4.08306 10 3 
2.79777 -6.51648 -2.82002 8 4 
3.02759 -7.51639 -3.3634 9 4 
2.56796 -5.51555 -2.27566 9 4 
3.01816 -7.47594 -3.34095 10 4 
2.57737 -5.557 -2.29809 10 4 
-12.6497 -11.4837 11.8568 8 5 
-12.3047 -12.5215 11.4599 9 5 
12.6733 -10.4479 12.2526 9 5 
-12.3189 -12.4783 11.4763 10 5 
12.6875 -10.4901 12.2362 10 5 
1.53484 -1.54988 -5.95082 8 6 
0.882723 -2.23037 -6.63139 9 6 
2.18795 -0.869394 -5.27226 9 6 
0.909813 -2.2021 -6.60274 10 6 
2.15986 -0.897661 -5.29991 10 6 
-10.6242 0.962052 -4.73217 8 7 
-11.2219 1.43846 -3.85756 9 7 
-10.0266 0.482644 -5.60676 9 7 
-11.1968 1.41803 -3.89324 10 7 
-10.0507 0.503077 -5.57007 10 7 
-6.41431 2.42035 10.7267 8 8 
-5.5813 3.10054 11.1692 9 8 
-7.24534 1.74119 10.2832 9 8 
-5.61572 3.07183 11.1522 10 8 
-7.21191 1.76888 10.3013 10 8 
10.0562 -4.80696 1.8301 8 9 
9.82111 -5.66498 1.08316 9 9 
10.2904 -3.94992 2.57706 9 9 
9.831 -5.62915 1.11207 10 9 
10.2805 -3.98375 2.54614 10 9 
0.557239 11.9176 2.9946 8 10 
-0.035531 11.3873 3.8414 9 10 
1.14998 12.4499 2.14883 9 10 
-0.0122481 11.4092 3.80614 10 10 
1.1257 12.428 2.18408 10 10 
11.6735 0.205248 -7.04043 8 11 
12.4356 0.256156 -6.16566 9 11 
10.9134 0.154336 -7.9182 9 11 
12.4045 0.254955 -6.20161 10 11 
10.9444 0.155537 -7.88224 10 11 
10.3589 12.8257 -8.83311 8 12 
9.333 12.3531 -8.56233 9 12 
11.3848 -12.3706 -9.10289 9 12 
9.37408 12.3722 -8.5738 10 12 
11.3427 -12.3897 -9.09143 10 12 
7.03007 -2.32335 1.32917 8 13 
6.75298 -1.22359 1.08174 9 13 
7.30817 -3.42312 1.57761 9 13 
6.76403 -1.26762 1.09255 10 13 
7.29612 -3.37908 1.56679 10 13 
-0.507073 -8.03878 3.41474 8 14 
-0.42582 -9.00343 4.05976 9 14 
-0.587327 -7.07512 2.76974 9 14 
-0.429706 -8.96277 4.03321 10 14 
-0.583443 -7.11678 2.7963 10 14 
6.52009 -11.8293 11.9343 8 15 
7.26998 -11.5384 11.0938 9 15 
5.77118 -12.1203 12.7738 9 15 
7.23836 -11.5509 11.129 10 15 
5.80281 -12.1088 12.7386 10 15 
-6.53139 -10.72 2.55594 8 16 
-7.33093 -10.6276 1.71855 9 16 
-5.73186 -10.8115 3.39434 9 16 
-7.29895 -10.6316 1.75256 10 16 
-5.76584 -10.8075 3.35932 10 16 
10.0128 2.19773 10.6656 8 17 
9.98568 2.97401 11.5292 9 17 
10.0408 1.42245 9.80007 9 17 
9.98692 2.943 11.4942 10 17 
10.0406 1.45447 9.83706 10 17 
-2.00747 -5.28079 -9.93333 8 18 
-1.96302 -4.72051 -8.91638 9 18 
-2.05191 -5.84207 -10.9503 9 18 
-1.96464 -4.74285 -8.95722 10 18 
-2.04931 -5.81773 -10.9084 10 18 
-0.457796 12.6293 -6.15515 8 19 
-1.11979 -12.7131 -5.25818 9 19 
0.203196 12.3017 -7.05312 9 19 
-1.092 -12.7256 -5.2945 10 19 
0.177404 12.3152 -7.0158 10 19 
4.20625 -12.6726 2.63213 8 20 
3.48021 -12.4358 3.50539 9 20 
4.93629 12.7605 1.7578 9 20 
3.50862 -12.4451 3.47099 10 20 
4.90692 12.7708 1.79422 10 20 
2.97991 3.4011 12.3402 8 21 
2.95825 4.2967 11.6033 9 21 
3.00058 2.50252 -12.5899 9 21 
2.95852 4.26114 11.6318 10 21 
2.99831 2.53904 -12.6204 10 21 
-0.939791 -1.36984 -11.8779 8 22 
-0.963237 -2.52368 -11.7581 9 22 
-0.915313 -0.212999 -12.0006 9 22 
-0.962781 -2.47768 -11.7621 10 22 
-0.917788 -0.260978 -11.9967 10 22 
-12.5129 0.611636 2.35063 8 23 
-11.5294 0.622943 1.72942 9 23 
12.1746 0.599327 2.96982 9 23 
-11.5692 0.621972 1.75471 10 23 
12.2154 0.600299 2.94352 10 23 
10.0888 -2.77838 -7.4925 8 24 
10.0265 -2.82179 -8.65291 9 24 
10.1511 -2.73598 -6.3331 9 24 
10.029 -2.81968 -8.60393 10 24 
10.1487 -2.73708 -6.38108 10 24 
-2.03177 -7.48305 -1.14612 8 25 
-1.23841 -6.63397 -1.11741 9 25 
-2.82412 -8.33313 -1.17482 9 25 
-1.27209 -6.66927 -1.11857 10 25 
-2.79044 -8.29783 -1.17367 10 25 
12.5483 -5.22618 -1.83606 8 26 
-12.6659 -5.14562 -2.90304 9 26 
12.0944 -5.30672 -0.770085 9 26 
-12.684 -5.1501 -2.85813 10 26 
12.1125 -5.30224 -0.814992 10 26 
12.0451 5.62549 12.0156 8 27 
12.6499 5.99254 -12.7318 9 27 
11.4384 5.25943 11.0941 9 27 
12.626 5.97662 -12.7698 10 27 
11.4633 5.27435 11.1321 10 27 
9.76082 9.94324 -6.8714 8 28 
9.08993 9.18903 -7.44763 9 28 
10.4307 10.6975 -6.29617 9 28 
9.11868 9.22088 -7.42411 10 28 
10.404 10.6676 -6.31966 10 28 
-2.37995 1.25204 9.43 8 29 
-1.3676 1.5652 9.90825 9 29 
-3.3913 0.938869 8.95175 9 29 
-1.40957 1.55232 9.88811 10 29 
-3.34932 0.951753 8.97088 10 29 
-1.00641 -1.82239 5.67183 8 30 
-0.92739 -2.11824 6.79203 9 30 
-1.08543 -1.52553 4.55063 9 30 
-0.930267 -2.10509 6.74607 10 30 
-1.08256 -1.53769 4.5976 10 30 
1.43661 -11.6081 7.11199 8 31 
1.97279 -12.3865 6.43514 9 31 
0.898462 -10.8276 7.78579 9 31 
1.95005 -12.3527 6.46344 10 31 
0.92222 -10.8604 7.75648 10 31 
5.31047 -1.71382 -12.0506 8 32 
5.67647 -0.97068 12.8038 9 32 
4.94147 -2.45598 -11.235 9 32 
5.66136 -1.00264 -12.8308 10 32 
4.95659 -2.42502 -11.2695 10 32 
-10.2688 7.95427 -12.1772 8 33 
-10.6639 7.68386 -11.1184 9 33 
-9.87384 8.22467 12.433 9 33 
-10.6467 7.69488 -11.1634 10 33 
-9.88996 8.21365 12.476 10 33 
-9.68336 9.70254 7.06555 8 34 
-9.00617 9.09338 7.78763 9 34 
-10.3596 10.3107 6.34245 9 34 
-9.03481 9.11942 7.75727 10 34 
-10.3319 10.2857 6.37284 10 34 
-2.43397 5.60869 2.89662 8 35 
-2.32548 6.75636 3.04985 9 35 
-2.54347 4.46302 2.74241 9 35 
-2.33137 6.70841 3.04334 10 35 
-2.53857 4.51098 2.74792 10 35 
-0.997663 1.52816 -4.58945 8 36 
-0.855697 2.56464 -4.0838 9 36 
-1.13963 0.492661 -5.09612 9 36 
-0.862444 2.52127 -4.10516 10 36 
-1.13388 0.534018 -5.07473 10 36 
12.7378 1.91526 5.80666 8 37 
-12.6578 2.93335 5.31747 9 37 
12.4635 0.897189 6.29483 9 37 
-12.6706 2.89177 5.33741 10 37 
12.4743 0.938786 6.27389 10 37 
9.43554 0.130365 3.88488 8 38 
9.78796 0.759408 4.79612 9 38 
9.08211 -0.498686 2.97264 9 38 
9.77311 0.734156 4.75823 10 38 
9.09596 -0.472432 3.01152 10 38 
5.83321 2.52136 -10.5729 8 39 
5.62004 2.18287 -9.48266 9 39 
6.04637 2.86087 -11.6652 9 39 
5.62901 2.19626 -9.52755 10 39 
6.03741 2.84648 -11.6203 10 39 
2.1986 11.8215 10.1382 8 40 
2.48609 -12.7438 9.91204 9 40 
1.90813 10.7187 10.3624 9 40 
2.47553 -12.7896 9.92243 10 40 
1.92069 10.7645 10.354 10 40 
-6.04164 11.4871 1.82877 8 41 
-6.54682 12.3318 2.44613 9 41 
-5.53743 10.6404 1.21138 9 41 
-6.52561 12.2976 2.42114 10 41 
-5.55864 10.6755 1.23739 10 41 
5.07419 -10.6931 -10.2311 8 42 
3.9428 -10.7017 -9.97239 9 42 
6.20758 -10.6845 -10.4898 9 42 
3.98985 -10.7012 -9.98116 10 42 
6.16052 -10.685 -10.479 10 42 
9.81346 0.45432 -11.5191 8 43 
10.169 0.20929 -12.5986 9 43 
9.45795 0.701345 -10.4406 9 43 
10.1548 0.21954 -12.5537 10 43 
9.4731 0.690088 -10.4865 10 43 
1.46607 9.02422 -10.8809 8 44 
0.685378 9.04826 -10.021 9 44 
2.24474 9.00119 -11.7428 9 44 
0.717706 9.04792 -10.0567 10 44 
2.21241 9.00252 -11.7072 10 44 
10.4612 8.12162 9.46106 8 45 
11.2516 8.08316 10.3145 9 45 
9.6717 8.16006 8.6106 9 45 
11.2186 8.08435 10.2786 10 45 
9.70576 8.15887 8.64553 10 45 
3.9478 -9.69676 9.64652 8 46 
4.70372 -10.2198 10.3582 9 46 
3.19186 -9.17569 8.93379 9 46 
4.67266 -10.1982 10.3277 10 46 
3.22295 -9.19727 8.96335 10 46 
-2.97188 6.24322 10.0594 8 47 
-2.75164 7.36933 10.2484 9 47 
-3.1901 5.11811 9.87236 9 47 
-2.76111 7.32234 10.241 10 47 
-3.18063 5.16609 9.87781 10 47 
-11.9199 -10.549 -7.12755 8 48 
-11.2537 -10.5904 -8.07873 9 48 
-12.5851 -10.5067 -6.1764 9 48 
-11.2814 -10.5896 -8.03955 10 48 
-12.5584 -10.5084 -6.21556 10 48 
-0.285892 -10.893 10.2453 8 49 
-0.0976584 -9.79265 10.5659 9 49 
-0.475126 -11.9934 9.92566 9 49 
-0.104587 -9.83759 10.5536 10 49 
-0.467196 -11.9495 9.93792 10 49 
10.0638 -9.94443 -5.71003 8 50 
9.97267 -10.1525 -4.57106 9 50 
10.1538 -9.73736 -6.84999 9 50 
9.97643 -10.1436 -4.61801 10 50 
10.1501 -9.74627 -6.80304 10 50 
9.57372 4.32725 3.57185 8 51 
8.54692 4.58864 4.0496 9 51 
10.5995 4.06786 3.0931 9 51 
8.58878 4.5771 4.03061 10 51 
10.5587 4.0784 3.11209 10 51 
2.72641 -2.57419 -3.04423 8 52 
1.72254 -2.72124 -3.60717 9 52 
3.73328 -2.42614 -2.48031 9 52 
1.76262 -2.71528 -3.58329 10 52 
3.6912 -2.4341 -2.50418 10 52 
-9.65275 -5.62687 2.96378 8 53 
-9.20699 -4.70284 3.50924 9 53 
-10.0985 -6.55089 2.41931 9 53 
-9.22498 -4.74189 3.48731 10 53 
-10.0795 -6.51385 2.44125 10 53 
-5.98054 -2.31815 -2.49013 8 54 
-4.93458 -2.73032 -2.2017 9 54 
-7.0295 -1.90501 -2.78057 9 54 
-4.97762 -2.7126 -2.21397 10 54 
-6.98446 -1.92172 -2.7693 10 54 
-1.71235 10.6823 6.21992 8 55 
-0.912518 11.1239 6.93859 9 55 
-2.51116 10.2418 5.49927 9 55 
-0.946102 11.1057 6.90923 10 55 
-2.47859 10.26 5.52962 10 55 
12.714 -8.87913 9.72687 8 56 
-12.5087 -9.9392 9.88552 9 56 
12.2658 -7.81806 9.56825 9 56 
-12.5276 -9.89502 9.87829 10 56 
12.2847 -7.86124 9.5755 10 56 
-9.88854 -10.4928 9.04927 8 57 
-9.50028 -11.2294 9.85763 9 57 
-10.2788 -9.75704 8.23788 9 57 
-9.51563 -11.1985 9.82513 10 57 
-10.2614 -9.78599 8.27344 10 57 
-11.501 0.257754 -1.33224 8 58 
-12.5433 0.689408 -1.05346 9 58 
-10.4587 -0.1749 -1.61102 9 58 
-12.5003 0.671298 -1.06524 10 58 
-10.5017 -0.156792 -1.60024 10 58 
-3.53665 -2.71683 12.3381 8 59 
-3.98256 -3.75484 12.6117 9 59 
-3.09175 -1.67883 12.0655 9 59 
-3.96544 -3.71179 12.599 10 59 
-3.10887 -1.72187 12.0762 10 59 
-3.16514 8.63096 -3.40531 8 60 
-2.01715 8.72678 -3.25673 9 60 
-4.31412 8.53614 -3.55491 9 60 
-2.06406 8.72279 -3.26341 10 60 
-4.26719 8.54013 -3.54923 10 60 
2.41545 10.25 -7.02895 8 61 
2.80845 10.3613 -5.94002 9 61 
2.02346 10.1366 -8.11591 9 61 
2.79206 10.3558 -5.98594 10 61 
2.03982 10.1412 -8.072 10 61 
11.7725 -4.20756 -11.7914 8 62 
11.9212 -4.00524 -10.6554 9 62 
11.6267 -4.40989 12.7436 9 62 
11.9149 -4.01405 -10.7024 10 62 
11.632 -4.40208 12.7906 10 62 
2.94419 6.27832 -2.57356 8 63 
3.46658 7.30014 -2.75091 9 63 
2.42281 5.25452 -2.3942 9 63 
3.44486 7.25706 -2.74351 10 63 
2.44353 5.29759 -2.40159 10 63 
8.72811 4.3088 -3.58389 8 64 
9.30058 3.9132 -2.65095 9 64 
8.15665 4.70538 -4.51383 9 64 
9.27656 3.92947 -2.68982 10 64 
8.18067 4.6881 -4.47496 10 64 
-2.18916 -10.8443 1.46319 8 65 
-2.97292 -11.6994 1.41513 9 65 
-1.40443 -9.98828 1.51022 9 65 
-2.93938 -11.6648 1.41672 10 65 
-1.43692 -10.0248 1.50965 10 65 
-2.70501 -11.5205 -3.22074 8 66 
-3.65603 -12.0085 -3.67804 9 66 
-1.756 -11.0325 -2.76244 9 66 
-3.61603 -11.9877 -3.65986 10 66 
-1.796 -11.0514 -2.78061 10 66 
8.32302 -1.67827 11.5832 8 67 
8.69905 -2.43567 12.3819 9 67 
7.94598 -0.9209 10.7865 9 67 
8.68427 -2.40319 12.3482 10 67 
7.96077 -0.952374 10.8202 10 67 
0.400111 1.14262 -8.81651 8 68 
0.920324 1.33449 -9.83765 9 68 
-0.120105 0.949756 -7.79536 9 68 
0.899564 1.32674 -9.79548 10 68 
-0.0983441 0.957502 -7.83753 10 68 
-10.6898 11.0402 3.0709 8 69 
-9.99415 11.9712 3.06981 9 69 
-11.3844 10.1091 3.07298 9 69 
-10.0221 11.9332 3.06961 10 69 
-11.3554 10.1471 3.07218 10 69 
-1.48715 -8.81451 -11.0616 8 70 
-2.35518 -8.78008 -11.834 9 70 
-0.618139 -8.84995 -10.2911 9 70 
-2.3187 -8.78149 -11.8036 10 70 
-0.653639 -8.84754 -10.3226 10 70 
-1.92668 -4.26112 2.07788 8 71 
-2.65798 -4.80561 1.35616 9 71 
-1.19738 -3.71664 2.79958 9 71 
-2.62752 -4.7826 1.38669 10 71 
-1.22785 -3.73866 2.76905 10 71 
-5.65437 11.4524 -11.3983 8 72 
-6.26287 12.4356 -11.2833 9 72 
-5.04687 10.4692 -11.5134 9 72 
-6.23742 12.3953 -11.2873 10 72 
-5.0713 10.5105 -11.5093 10 72 
9.34686 -4.2263 -3.95887 8 73 
10.3902 -3.92658 -3.54594 9 73 
8.30352 -4.52701 -4.37281 9 73 
10.347 -3.93903 -3.56289 10 73 
8.34571 -4.51355 -4.35485 10 73 
-11.3362 6.80521 0.852189 8 74 
-12.3063 7.14701 1.39276 9 74 
-10.365 6.46341 0.312613 9 74 
-12.2664 7.13324 1.36841 10 74 
-10.4059 6.4782 0.333976 10 74 
-2.35726 2.30056 5.40199 8 75 
-2.25713 2.91764 6.38189 9 75 
-2.45638 1.68347 4.42309 9 75 
-2.26121 2.89184 6.34277 10 75 
-2.4523 1.70927 4.46421 10 75 
-10.792 -3.69931 -10.3484 8 76 
-10.3923 -2.62447 -10.5397 9 76 
-11.1917 -4.77216 -10.1562 9 76 
-10.4088 -2.66976 -10.5312 10 76 
-11.1772 -4.7289 -10.1647 10 76 
2.89361 10.5942 6.49639 8 77 
2.26506 10.689 7.46871 9 77 
3.52416 10.5014 5.52408 9 77 
2.29096 10.6843 7.42961 10 77 
3.49726 10.5061 5.56418 10 77 
-9.8838 -10.1771 3.48774 8 78 
-9.41193 -9.54171 2.63698 9 78 
-10.3567 -10.8126 4.3385 9 78 
-9.43217 -9.56793 2.67068 10 78 
-10.3364 -10.7873 4.3018 10 78 
0.911578 10.0427 -0.981725 8 79 
0.969136 9.09632 -0.308115 9 79 
0.85502 10.989 -1.65533 9 79 
0.967281 9.13595 -0.336642 10 79 
0.857875 10.9494 -1.6268 10 79 
3.29743 -12.3124 -3.58095 8 80 
3.51489 -12.0847 -4.69989 9 80 
3.07999 -12.5391 -2.461 9 80 
3.50535 -12.0935 -4.65255 10 80 
3.09057 -12.5302 -2.50738 10 80 
-1.40272 -1.98045 -3.17206 8 81 
-1.89651 -2.94117 -3.60117 9 81 
-0.908926 -1.01873 -2.74295 9 81 
-1.87606 -2.90147 -3.584 10 81 
-0.928383 -1.05944 -2.76113 10 81 
-6.81593 2.72322 -10.1097 8 82 
-7.90218 2.63942 -10.5106 9 82 
-5.72861 2.80503 -9.70671 9 82 
-7.85678 2.6437 -10.4948 10 82 
-5.77307 2.80174 -9.72457 10 82 
6.36369 11.4229 -0.683715 8 83 
6.60914 12.2635 -1.44656 9 83 
6.11822 10.5814 0.0801265 9 83 
6.59878 12.2285 -1.41465 10 83 
6.12758 10.6164 0.0482118 10 83 
-9.16153 -3.34755 -4.51278 8 84 
-8.60833 -4.35503 -4.67583 9 84 
-9.71473 -2.33908 -4.34873 9 84 
-8.63001 -4.31385 -4.66987 10 84 
-9.69106 -2.38127 -4.35469 10 84 
-3.41068 3.26916 -2.83605 8 85 
-4.01701 2.41664 -3.34196 9 85 
-2.80635 4.12267 -2.33215 9 85 
-3.99224 2.45078 -3.32192 10 85 
-2.83212 4.08852 -2.35219 10 85 
-10.0814 6.14898 -2.97211 8 86 
-10.5881 7.11436 -2.57018 9 86 
-9.57367 5.18463 -3.37204 9 86 
-10.5677 7.07534 -2.58661 10 86 
-9.59412 5.22366 -3.35461 10 86 
9.89227 -12.0529 9.49654 8 87 
9.21944 -12.6019 8.7246 9 87 
10.5661 -11.5049 10.2695 9 87 
9.24772 -12.5801 8.75747 10 87 
10.5388 -11.5268 10.2376 10 87 
10.4993 -2.1292 6.68964 8 88 
9.94232 -2.00233 5.67741 9 88 
11.0563 -2.25606 7.70187 9 88 
9.96583 -2.00749 5.71867 10 88 
11.0328 -2.2509 7.6596 10 88 
-3.96848 -8.31854 3.67515 8 89 
-3.34522 -8.64978 2.75259 9 89 
-4.59376 -7.98628 4.59675 9 89 
-3.37078 -8.63615 2.79102 10 89 
-4.56819 -7.99993 4.55932 10 89 
2.83282 -0.066113 2.62306 8 90 
1.74107 -0.403078 2.83625 9 90 
3.92458 0.269856 2.40886 9 90 
1.78588 -0.388423 2.82737 10 90 
3.87878 0.254183 2.41874 10 90 
-8.93068 3.21593 4.31723 8 91 
-8.99218 2.05898 4.40832 9 91 
-8.8692 4.37389 4.22813 9 91 
-8.99007 2.10701 4.40411 10 91 
-8.87328 4.32483 4.23235 10 91 
-2.72142 4.89616 -12.3363 8 92 
-2.64021 5.6242 12.4311 9 92 
-2.80264 4.16812 -11.4347 9 92 
-2.64481 5.59448 12.4683 10 92 
-2.79903 4.19784 -11.471 10 92 
-11.918 11.2869 -12.0301 8 93 
-11.4235 10.3765 -12.5592 9 93 
-12.4105 12.1963 -11.5021 9 93 
-11.4438 10.4138 -12.5368 10 93 
-12.3912 12.158 -11.5245 10 93 
-4.97245 -3.55953 -9.06324 8 94 
-4.61543 -4.49467 -8.47292 9 94 
-5.32848 -2.62338 -9.65158 9 94 
-4.62955 -4.45582 -8.4971 10 94 
-5.31436 -2.66122 -9.6274 10 94 
-11.9679 -3.20202 4.20609 8 95 
-12.5433 -4.11948 3.78351 9 95 
-11.3905 -2.28756 4.62765 9 95 
-12.5203 -4.08163 3.80086 10 95 
-11.4144 -2.32542 4.61029 10 95 
-2.73 -8.05314 9.82252 8 96 
-2.99817 -9.10266 9.40451 9 96 
-2.46081 -7.00263 10.2405 9 96 
-2.98643 -9.05985 9.42151 10 96 
-2.47255 -7.04544 10.2235 10 96 
9.94858 -6.40681 10.0873 8 97 
10.4814 -5.44091 10.4558 9 97 
9.41684 -7.37172 9.71985 9 97 
10.4598 -5.48083 10.4403 10 97 
9.43837 -7.3318 9.73534 10 97 
12.7042 -7.87944 -10.9402 8 98 
12.4202 -8.79993 -10.2892 9 98 
-12.6788 -6.95992 -11.5901 9 98 
12.4307 -8.7611 -10.3177 10 98 
-12.6903 -6.99778 -11.5637 10 98 
10.2658 8.28705 2.74085 8 99 
10.3137 9.44758 2.76701 9 99 
10.2189 7.12552 2.71469 9 99 
10.311 9.39861 2.76609 10 99 
10.2215 7.17349 2.71561 10 99 
2.65816 4.3983 -9.82028 8 100 
3.73135 4.55805 -10.2343 9 100 
1.58295 4.24054 -9.40723 9 100 
3.68662 4.55093 -10.2176 10 100 
1.62768 4.24665 -9.42394 10 100 
-1.67662 0.501926 -0.226764 8 101 
-0.788358 1.2298 -0.0487808 9 101 
-2.56287 -0.226941 -0.405745 9 101 
-0.825245 1.19968 -0.0558631 10 101 
-2.52598 -0.196821 -0.399663 10 101 
ITEM: TIMESTEP
8
ITEM: NUMBER OF ATOMS
500
ITEM: BOX BOUNDS pp pp pp
-12.8345 12.8345
-12.8345 12.8345
-12.8345 12.8345
ITEM: ATOMS x y z type mol 
-0.222983 -9.08896 -4.14783 8 2 
0.209822 -9.76312 -4.98874 9 2 
-0.656798 -8.41381 -3.30691 9 2 
0.192373 -9.73464 -4.95453 10 2 
-0.638344 -8.44227 -3.34211 10 2 
-8.71172 -1.96939 3.16719 8 3 
-9.36946 -1.86671 2.2152 9 3 
-8.05298 -2.07209 4.11916 9 3 
-9.34307 -1.87127 2.25379 10 3 
-8.08138 -2.06746 4.0796 10 3 
2.80067 -6.50371 -2.83726 8 4 
3.01606 -7.51441 -3.3664 9 4 
2.58531 -5.49198 -2.30714 9 4 
3.00723 -7.47351 -3.34453 10 4 