Title

1349 atoms
10 atom types
740 bonds
740 bond types

-12.834500 12.834500 xlo xhi
-12.834500 12.834500 ylo yhi
-12.834500 12.834500 zlo zhi


Atoms

1 1 1 1.85300 7.568 5.314 -7.516 #ZN
2 1 1 1.85300 5.335 -5.287 -5.283 #ZN
3 1 1 1.85300 5.335 7.547 7.551 #ZN
4 1 1 1.85300 5.335 -7.520 7.551 #ZN
5 1 1 1.85300 -5.266 7.547 -7.516 #ZN
6 1 1 1.85300 5.335 5.314 5.318 #ZN
7 1 1 1.85300 7.568 -5.287 -7.516 #ZN
8 1 1 1.85300 -5.266 -7.520 7.551 #ZN
9 1 1 1.85300 -5.266 5.314 -5.283 #ZN
10 1 1 1.85300 -5.266 -5.287 5.318 #ZN
11 1 1 1.85300 -7.499 -5.287 -7.516 #ZN
12 1 1 1.85300 7.568 -7.520 5.318 #ZN
13 1 1 1.85300 -7.499 -7.520 5.318 #ZN
14 1 1 1.85300 7.568 -5.287 7.551 #ZN
15 1 1 1.85300 7.568 7.547 5.318 #ZN
16 1 1 1.85300 5.335 -7.520 -7.516 #ZN
17 1 1 1.85300 -5.266 -7.520 -7.516 #ZN
18 1 1 1.85300 -7.499 7.547 -5.283 #ZN
19 1 1 1.85300 -7.499 -5.287 7.551 #ZN
20 1 1 1.85300 -7.499 -7.520 -5.283 #ZN
21 1 1 1.85300 -5.266 -5.287 -5.283 #ZN
22 1 1 1.85300 -7.499 5.314 7.551 #ZN
23 1 1 1.85300 -7.499 5.314 -7.516 #ZN
24 1 1 1.85300 -5.266 5.314 5.318 #ZN
25 1 1 1.85300 5.335 7.547 -7.516 #ZN
26 1 1 1.85300 5.335 -5.287 5.318 #ZN
27 1 1 1.85300 5.335 5.314 -5.283 #ZN
28 1 1 1.85300 7.568 -7.520 -5.283 #ZN
29 1 1 1.85300 7.568 7.547 -5.283 #ZN
30 1 1 1.85300 -7.499 7.547 5.318 #ZN
31 1 1 1.85300 7.568 5.314 7.551 #ZN
32 1 1 1.85300 -5.266 7.547 7.551 #ZN
33 1 2 -1.00690 3.472 7.247 7.251 #O2
34 1 2 -1.00690 -7.199 5.614 -9.380 #O2
35 1 2 -1.00690 -7.199 3.451 7.251 #O2
36 1 2 -1.00690 -9.363 7.247 -5.583 #O2
37 1 2 -1.00690 7.268 -7.220 3.455 #O2
38 1 2 -1.00690 3.472 -5.587 -5.583 #O2
39 1 2 -1.00690 7.268 3.451 -7.216 #O2
40 1 2 -1.00690 -5.566 7.247 9.415 #O2
41 1 2 -1.00690 -3.403 5.614 -5.583 #O2
42 1 2 -1.00690 7.268 3.451 7.251 #O2
43 1 2 -1.00690 7.268 -9.384 5.618 #O2
44 1 2 -1.00690 -7.199 -9.384 5.618 #O2
45 1 2 -1.00690 9.432 -5.587 -7.216 #O2
46 1 2 -1.00690 -5.566 3.451 -5.583 #O2
47 1 2 -1.00690 -5.566 9.411 -7.216 #O2
48 1 2 -1.00690 -3.403 7.247 -7.216 #O2
49 1 2 -1.00690 9.432 5.614 -7.216 #O2
50 1 2 -1.00690 5.635 -3.424 5.618 #O2
51 1 2 -1.00690 3.472 -5.587 5.618 #O2
52 1 2 -1.00690 -5.566 -7.220 -9.380 #O2
53 1 2 -1.00690 7.268 -5.587 9.415 #O2
54 1 2 -1.00690 7.268 9.411 -5.583 #O2
55 1 2 -1.00690 -3.403 -7.220 -7.216 #O2
56 1 2 -1.00690 7.268 7.247 -3.420 #O2
57 1 3 -2.25680 -6.383 -6.404 6.435 #O1
58 1 2 -1.00690 -7.199 -5.587 9.415 #O2
59 1 2 -1.00690 -3.403 -5.587 5.618 #O2
60 1 2 -1.00690 7.268 -5.587 -9.380 #O2
61 1 2 -1.00690 -5.566 -3.424 -5.583 #O2
62 1 2 -1.00690 7.268 -7.220 -3.420 #O2
63 1 2 -1.00690 9.432 5.614 7.251 #O2
64 1 2 -1.00690 5.635 -7.220 -9.380 #O2
65 1 2 -1.00690 -5.566 5.614 -3.420 #O2
66 1 2 -1.00690 5.635 -5.587 -3.420 #O2
67 1 2 -1.00690 -9.363 5.614 7.251 #O2
68 1 2 -1.00690 9.432 7.247 5.618 #O2
69 1 2 -1.00690 7.268 -9.384 -5.583 #O2
70 1 2 -1.00690 -5.566 7.247 -9.380 #O2
71 1 2 -1.00690 -5.566 -5.587 3.455 #O2
72 1 2 -1.00690 -7.199 9.411 5.618 #O2
73 1 2 -1.00690 7.268 -3.424 -7.216 #O2
74 1 2 -1.00690 -7.199 -3.424 -7.216 #O2
75 1 2 -1.00690 5.635 3.451 5.618 #O2
76 1 2 -1.00690 9.432 -7.220 5.618 #O2
77 1 2 -1.00690 -7.199 -3.424 7.251 #O2
78 1 2 -1.00690 9.432 -7.220 -5.583 #O2
79 1 2 -1.00690 -3.403 -7.220 7.251 #O2
80 1 2 -1.00690 -9.363 -5.587 7.251 #O2
81 1 3 -2.25680 -6.383 -6.404 -6.400 #O1
82 1 2 -1.00690 7.268 7.247 3.455 #O2
83 1 2 -1.00690 3.472 5.614 5.618 #O2
84 1 2 -1.00690 -9.363 5.614 -7.216 #O2
85 1 2 -1.00690 5.635 5.614 3.455 #O2
86 1 2 -1.00690 -7.199 9.411 -5.583 #O2
87 1 2 -1.00690 5.635 -5.587 3.455 #O2
88 1 2 -1.00690 -9.363 7.247 5.618 #O2
89 1 2 -1.00690 -5.566 -9.384 -7.216 #O2
90 1 2 -1.00690 -5.566 -3.424 5.618 #O2
91 1 2 -1.00690 -5.566 -7.220 9.415 #O2
92 1 2 -1.00690 5.635 7.247 9.415 #O2
93 1 2 -1.00690 -7.199 -7.220 3.455 #O2
94 1 2 -1.00690 5.635 -7.220 9.415 #O2
95 1 2 -1.00690 7.268 5.614 9.415 #O2
96 1 2 -1.00690 7.268 5.614 -9.380 #O2
97 1 2 -1.00690 -7.199 -5.587 -9.380 #O2
98 1 2 -1.00690 -7.199 7.247 -3.420 #O2
99 1 3 -2.25680 6.452 6.431 -6.400 #O1
100 1 3 -2.25680 6.452 -6.404 6.435 #O1
101 1 3 -2.25680 -6.383 6.431 6.435 #O1
102 1 2 -1.00690 5.635 9.411 -7.216 #O2
103 1 2 -1.00690 -7.199 7.247 3.455 #O2
104 1 2 -1.00690 7.268 -3.424 7.251 #O2
105 1 2 -1.00690 -7.199 3.451 -7.216 #O2
106 1 2 -1.00690 5.635 9.411 7.251 #O2
107 1 2 -1.00690 -5.566 5.614 3.455 #O2
108 1 2 -1.00690 7.268 9.411 5.618 #O2
109 1 3 -2.25680 6.452 -6.404 -6.400 #O1
110 1 3 -2.25680 -6.383 6.431 -6.400 #O1
111 1 2 -1.00690 9.432 -5.587 7.251 #O2
112 1 2 -1.00690 -3.403 7.247 7.251 #O2
113 1 2 -1.00690 -3.403 5.614 5.618 #O2
114 1 2 -1.00690 5.635 3.451 -5.583 #O2
115 1 2 -1.00690 -7.199 5.614 9.415 #O2
116 1 2 -1.00690 -3.403 -5.587 -5.583 #O2
117 1 2 -1.00690 -9.363 -5.587 -7.216 #O2
118 1 2 -1.00690 -9.363 -7.220 -5.583 #O2
119 1 2 -1.00690 5.635 7.247 -9.380 #O2
120 1 2 -1.00690 -5.566 9.411 7.251 #O2
121 1 2 -1.00690 9.432 7.247 -5.583 #O2
122 1 2 -1.00690 5.635 -9.384 -7.216 #O2
123 1 2 -1.00690 3.472 5.614 -5.583 #O2
124 1 2 -1.00690 -5.566 3.451 5.618 #O2
125 1 2 -1.00690 5.635 5.614 -3.420 #O2
126 1 2 -1.00690 -7.199 -7.220 -3.420 #O2
127 1 2 -1.00690 -7.199 -9.384 -5.583 #O2
128 1 3 -2.25680 6.452 6.431 6.435 #O1
129 1 2 -1.00690 5.635 -9.384 7.251 #O2
130 1 2 -1.00690 -9.363 -7.220 5.618 #O2
131 1 2 -1.00690 3.472 7.247 -7.216 #O2
132 1 2 -1.00690 3.472 -7.220 -7.216 #O2
133 1 2 -1.00690 -5.566 -5.587 -3.420 #O2
134 1 2 -1.00690 3.472 -7.220 7.251 #O2
135 1 2 -1.00690 5.635 -3.424 -5.583 #O2
136 1 2 -1.00690 -5.566 -9.384 7.251 #O2
137 1 4 0.14890 5.017 7.866 -11.658 #H
138 1 4 0.14890 11.709 7.866 5.000 #H
139 1 4 0.14890 -7.818 11.688 -4.965 #H
140 1 4 0.14890 5.017 7.866 11.691 #H
141 1 4 0.14890 -7.818 -1.147 7.870 #H
142 1 4 0.14890 11.709 -4.969 -7.835 #H
143 1 4 0.14890 1.195 -7.839 -7.835 #H
144 1 4 0.14890 1.195 7.866 7.870 #H
145 1 4 0.14890 1.195 4.996 -4.965 #H
146 1 4 0.14890 -4.948 11.688 -7.835 #H
147 1 4 0.14890 -4.948 -1.147 5.000 #H
148 1 4 0.14890 5.017 -11.661 7.870 #H
149 1 4 0.14890 -1.126 7.866 7.870 #H
150 1 4 0.14890 7.887 -11.661 5.000 #H
151 1 4 0.14890 -7.818 4.996 11.691 #H
152 1 4 0.14890 1.195 -7.839 7.870 #H
153 1 4 0.14890 5.017 11.688 -7.835 #H
154 1 4 0.14890 5.017 -1.147 5.000 #H
155 1 4 0.14890 -4.948 1.174 5.000 #H
156 1 4 0.14890 1.195 -4.969 -4.965 #H
157 1 4 0.14890 5.017 -1.147 -4.965 #H
158 1 4 0.14890 -11.640 -4.969 7.870 #H
159 1 4 0.14890 7.887 7.866 1.178 #H
160 1 4 0.14890 5.017 -11.661 -7.835 #H
161 1 4 0.14890 -7.818 11.688 5.000 #H
162 1 4 0.14890 5.017 -4.969 -1.143 #H
163 1 4 0.14890 5.017 1.174 -4.965 #H
164 1 4 0.14890 -4.948 -7.839 11.691 #H
165 1 4 0.14890 5.017 4.996 1.178 #H
166 1 4 0.14890 -1.126 -4.969 5.000 #H
167 1 4 0.14890 1.195 4.996 5.000 #H
168 1 4 0.14890 7.887 11.688 5.000 #H
169 1 4 0.14890 -1.126 7.866 -7.835 #H
170 1 4 0.14890 -4.948 7.866 -11.658 #H
171 1 4 0.14890 11.709 4.996 7.870 #H
172 1 4 0.14890 7.887 7.866 -1.143 #H
173 1 4 0.14890 5.017 1.174 5.000 #H
174 1 4 0.14890 7.887 -7.839 1.178 #H
175 1 4 0.14890 7.887 -4.969 11.691 #H
176 1 4 0.14890 1.195 7.866 -7.835 #H
177 1 4 0.14890 7.887 -1.147 -7.835 #H
178 1 4 0.14890 7.887 -11.661 -4.965 #H
179 1 4 0.14890 -7.818 -4.969 11.691 #H
180 1 4 0.14890 7.887 1.174 7.870 #H
181 1 4 0.14890 -1.126 -4.969 -4.965 #H
182 1 4 0.14890 11.709 -7.839 -4.965 #H
183 1 4 0.14890 -7.818 -11.661 -4.965 #H
184 1 4 0.14890 -11.640 -7.839 5.000 #H
185 1 4 0.14890 7.887 4.996 11.691 #H
186 1 4 0.14890 7.887 -7.839 -1.143 #H
187 1 4 0.14890 11.709 4.996 -7.835 #H
188 1 4 0.14890 -11.640 -7.839 -4.965 #H
189 1 4 0.14890 -11.640 7.866 -4.965 #H
190 1 4 0.14890 -11.640 4.996 7.870 #H
191 1 4 0.14890 5.017 11.688 7.870 #H
192 1 4 0.14890 -7.818 4.996 -11.658 #H
193 1 4 0.14890 11.709 -4.969 7.870 #H
194 1 4 0.14890 -7.818 -7.839 1.178 #H
195 1 4 0.14890 7.887 -1.147 7.870 #H
196 1 4 0.14890 -1.126 -7.839 7.870 #H
197 1 4 0.14890 -7.818 -11.661 5.000 #H
198 1 4 0.14890 -1.126 -7.839 -7.835 #H
199 1 4 0.14890 -4.948 4.996 1.178 #H
200 1 4 0.14890 11.709 7.866 -4.965 #H
201 1 4 0.14890 -4.948 -1.147 -4.965 #H
202 1 4 0.14890 5.017 -4.969 1.178 #H
203 1 4 0.14890 -1.126 4.996 5.000 #H
204 1 4 0.14890 -4.948 11.688 7.870 #H
205 1 4 0.14890 -4.948 -7.839 -11.658 #H
206 1 4 0.14890 -7.818 7.866 -1.143 #H
207 1 4 0.14890 7.887 11.688 -4.965 #H
208 1 4 0.14890 -7.818 7.866 1.178 #H
209 1 4 0.14890 -4.948 1.174 -4.965 #H
210 1 4 0.14890 -4.948 -4.969 -1.143 #H
211 1 4 0.14890 5.017 -7.839 11.691 #H
212 1 4 0.14890 7.887 4.996 -11.658 #H
213 1 4 0.14890 -7.818 -4.969 -11.658 #H
214 1 4 0.14890 -4.948 4.996 -1.143 #H
215 1 4 0.14890 7.887 1.174 -7.835 #H
216 1 4 0.14890 5.017 4.996 -1.143 #H
217 1 4 0.14890 -1.126 4.996 -4.965 #H
218 1 4 0.14890 5.017 -7.839 -11.658 #H
219 1 4 0.14890 -7.818 -7.839 -1.143 #H
220 1 4 0.14890 -4.948 7.866 11.691 #H
221 1 4 0.14890 -7.818 1.174 -7.835 #H
222 1 4 0.14890 -4.948 -11.661 -7.835 #H
223 1 4 0.14890 -7.818 1.174 7.870 #H
224 1 4 0.14890 1.195 -4.969 5.000 #H
225 1 4 0.14890 -11.640 4.996 -7.835 #H
226 1 4 0.14890 -7.818 -1.147 -7.835 #H
227 1 4 0.14890 -4.948 -4.969 1.178 #H
228 1 4 0.14890 11.709 -7.839 5.000 #H
229 1 4 0.14890 7.887 -4.969 -11.658 #H
230 1 4 0.14890 -4.948 -11.661 7.870 #H
231 1 4 0.14890 -11.640 7.866 5.000 #H
232 1 4 0.14890 -11.640 -4.969 -7.835 #H
233 1 5 1.09830 6.452 -9.985 -6.400 #C1
234 1 6 -0.05180 -12.125 7.280 5.585 #C3
235 1 5 1.09830 10.033 -6.404 6.435 #C1
236 1 7 -0.13780 11.488 6.431 -6.400 #C2
237 1 5 1.09830 2.871 6.431 -6.400 #C1
238 1 7 -0.13780 -1.346 6.431 6.435 #C2
239 1 7 -0.13780 1.415 6.431 -6.400 #C2
240 1 7 -0.13780 -11.419 6.431 6.435 #C2
241 1 5 1.09830 -2.802 6.431 6.435 #C1
242 1 5 1.09830 6.452 -6.404 -2.819 #C1
243 1 7 -0.13780 1.415 -6.404 6.435 #C2
244 1 5 1.09830 -6.383 -6.404 -2.819 #C1
245 1 5 1.09830 -6.383 6.431 2.854 #C1
246 1 6 -0.05180 0.710 7.280 -7.249 #C3
247 1 5 1.09830 6.452 -6.404 2.854 #C1
248 1 7 -0.13780 6.452 6.431 -11.437 #C2
249 1 7 -0.13780 -6.383 11.467 6.435 #C2
250 1 5 1.09830 -6.383 -6.404 10.015 #C1
251 1 6 -0.05180 -5.533 7.280 -12.143 #C3
252 1 7 -0.13780 -6.383 -6.404 -11.437 #C2
253 1 7 -0.13780 -6.383 -1.367 6.435 #C2
254 1 6 -0.05180 0.710 -7.253 7.284 #C3
255 1 7 -0.13780 -6.383 6.431 11.470 #C2
256 1 6 -0.05180 7.301 -5.554 -12.143 #C3
257 1 7 -0.13780 6.452 -6.404 11.470 #C2
258 1 5 1.09830 2.871 -6.404 6.435 #C1
259 1 7 -0.13780 -11.419 -6.404 -6.400 #C2
260 1 6 -0.05180 -0.641 -7.253 7.284 #C3
261 1 6 -0.05180 -7.232 -5.554 -12.143 #C3
262 1 7 -0.13780 6.452 -6.404 1.398 #C2
263 1 7 -0.13780 -6.383 6.431 1.398 #C2
264 1 7 -0.13780 6.452 6.431 -1.363 #C2
265 1 5 1.09830 6.452 6.431 -2.819 #C1
266 1 6 -0.05180 -5.533 0.689 5.585 #C3
267 1 6 -0.05180 0.710 7.280 7.284 #C3
268 1 7 -0.13780 6.452 11.467 6.435 #C2
269 1 7 -0.13780 6.452 1.394 6.435 #C2
270 1 5 1.09830 6.452 -9.985 6.435 #C1
271 1 7 -0.13780 -6.383 11.467 -6.400 #C2
272 1 6 -0.05180 5.602 5.581 0.693 #C3
273 1 5 1.09830 6.452 2.850 6.435 #C1
274 1 6 -0.05180 -5.533 -7.253 -12.143 #C3
275 1 6 -0.05180 0.710 -5.554 -5.550 #C3
276 1 7 -0.13780 6.452 6.431 1.398 #C2
277 1 7 -0.13780 6.452 -11.440 -6.400 #C2
278 1 7 -0.13780 -6.383 1.394 -6.400 #C2
279 1 5 1.09830 -6.383 2.850 -6.400 #C1
280 1 7 -0.13780 -1.346 6.431 -6.400 #C2
281 1 5 1.09830 -2.802 -6.404 6.435 #C1
282 1 7 -0.13780 11.488 -6.404 -6.400 #C2
283 1 6 -0.05180 12.194 7.280 5.585 #C3
284 1 5 1.09830 -2.802 6.431 -6.400 #C1
285 1 5 1.09830 6.452 10.012 6.435 #C1
286 1 7 -0.13780 -1.346 -6.404 6.435 #C2
287 1 7 -0.13780 1.415 6.431 6.435 #C2
288 1 7 -0.13780 1.415 -6.404 -6.400 #C2
289 1 5 1.09830 2.871 -6.404 -6.400 #C1
290 1 7 -0.13780 -11.419 -6.404 6.435 #C2
291 1 5 1.09830 2.871 6.431 6.435 #C1
292 1 7 -0.13780 -11.419 6.431 -6.400 #C2
293 1 6 -0.05180 5.602 -0.662 5.585 #C3
294 1 7 -0.13780 6.452 11.467 -6.400 #C2
295 1 5 1.09830 -2.802 -6.404 -6.400 #C1
296 1 7 -0.13780 6.452 1.394 -6.400 #C2
297 1 5 1.09830 6.452 2.850 -6.400 #C1
298 1 7 -0.13780 -6.383 -1.367 -6.400 #C2
299 1 5 1.09830 -6.383 -2.823 -6.400 #C1
300 1 6 -0.05180 -7.232 12.173 5.585 #C3
301 1 7 -0.13780 6.452 -11.440 6.435 #C2
302 1 7 -0.13780 -6.383 -11.440 -6.400 #C2
303 1 6 -0.05180 5.602 7.280 -12.143 #C3
304 1 7 -0.13780 11.488 -6.404 6.435 #C2
305 1 6 -0.05180 5.602 -7.253 12.177 #C3
306 1 7 -0.13780 -6.383 1.394 6.435 #C2
307 1 5 1.09830 -6.383 2.850 6.435 #C1
308 1 5 1.09830 6.452 6.431 2.854 #C1
309 1 7 -0.13780 -6.383 6.431 -11.437 #C2
310 1 5 1.09830 6.452 -6.404 -9.981 #C1
311 1 7 -0.13780 6.452 -6.404 -1.363 #C2
312 1 7 -0.13780 6.452 -6.404 -11.437 #C2
313 1 7 -0.13780 -6.383 -6.404 1.398 #C2
314 1 5 1.09830 -6.383 -6.404 2.854 #C1
315 1 5 1.09830 10.033 6.431 -6.400 #C1
316 1 7 -0.13780 -6.383 -6.404 11.470 #C2
317 1 7 -0.13780 6.452 -1.367 6.435 #C2
318 1 5 1.09830 6.452 -2.823 6.435 #C1
319 1 7 -0.13780 6.452 6.431 11.470 #C2
320 1 7 -0.13780 -6.383 6.431 -1.363 #C2
321 1 5 1.09830 -6.383 6.431 -2.819 #C1
322 1 6 -0.05180 5.602 12.173 7.284 #C3
323 1 6 -0.05180 -7.232 -0.662 -7.249 #C3
324 1 6 -0.05180 7.301 -5.554 12.177 #C3
325 1 6 -0.05180 -5.533 -0.662 -5.550 #C3
326 1 6 -0.05180 -5.533 5.581 -0.658 #C3
327 1 6 -0.05180 7.301 5.581 12.177 #C3
328 1 6 -0.05180 -7.232 5.581 -12.143 #C3
329 1 5 1.09830 -6.383 -9.985 6.435 #C1
330 1 6 -0.05180 12.194 -5.554 -7.249 #C3
331 1 5 1.09830 -6.383 6.431 10.015 #C1
332 1 7 -0.13780 -6.383 -11.440 6.435 #C2
333 1 6 -0.05180 -0.641 7.280 -7.249 #C3
334 1 6 -0.05180 -7.232 -12.146 5.585 #C3
335 1 6 -0.05180 -12.125 -5.554 7.284 #C3
336 1 6 -0.05180 -0.641 5.581 -5.550 #C3
337 1 6 -0.05180 5.602 -5.554 0.693 #C3
338 1 7 -0.13780 6.452 -1.367 -6.400 #C2
339 1 6 -0.05180 -0.641 -5.554 5.585 #C3
340 1 6 -0.05180 7.301 -0.662 7.284 #C3
341 1 5 1.09830 6.452 -6.404 10.015 #C1
342 1 6 -0.05180 5.602 -7.253 -12.143 #C3
343 1 6 -0.05180 5.602 0.689 -5.550 #C3
344 1 6 -0.05180 12.194 5.581 7.284 #C3
345 1 6 -0.05180 -7.232 -5.554 12.177 #C3
346 1 5 1.09830 -6.383 10.012 -6.400 #C1
347 1 6 -0.05180 0.710 -7.253 -7.249 #C3
348 1 6 -0.05180 5.602 0.689 5.585 #C3
349 1 6 -0.05180 7.301 -0.662 -7.249 #C3
350 1 6 -0.05180 -7.232 0.689 -7.249 #C3
351 1 7 -0.13780 11.488 6.431 6.435 #C2
352 1 5 1.09830 6.452 6.431 10.015 #C1
353 1 6 -0.05180 -12.125 -7.253 5.585 #C3
354 1 6 -0.05180 -7.232 12.173 -5.550 #C3
355 1 6 -0.05180 5.602 -0.662 -5.550 #C3
356 1 5 1.09830 -6.383 -2.823 6.435 #C1
357 1 6 -0.05180 -5.533 12.173 -7.249 #C3
358 1 5 1.09830 6.452 6.431 -9.981 #C1
359 1 5 1.09830 6.452 10.012 -6.400 #C1
360 1 5 1.09830 -6.383 -6.404 -9.981 #C1
361 1 6 -0.05180 5.602 7.280 12.177 #C3
362 1 6 -0.05180 12.194 -7.253 -5.550 #C3
363 1 6 -0.05180 7.301 7.280 0.693 #C3
364 1 6 -0.05180 -7.232 -7.253 0.693 #C3
365 1 6 -0.05180 -5.533 5.581 0.693 #C3
366 1 6 -0.05180 -5.533 -0.662 5.585 #C3
367 1 6 -0.05180 -5.533 -12.146 7.284 #C3
368 1 6 -0.05180 -12.125 7.280 -5.550 #C3
369 1 6 -0.05180 5.602 -12.146 -7.249 #C3
370 1 5 1.09830 10.033 6.431 6.435 #C1
371 1 6 -0.05180 -5.533 -5.554 0.693 #C3
372 1 5 1.09830 6.452 -2.823 -6.400 #C1
373 1 6 -0.05180 -12.125 5.581 7.284 #C3
374 1 6 -0.05180 -0.641 -7.253 -7.249 #C3
375 1 6 -0.05180 5.602 12.173 -7.249 #C3
376 1 6 -0.05180 -0.641 5.581 5.585 #C3
377 1 6 -0.05180 7.301 0.689 7.284 #C3
378 1 6 -0.05180 -5.533 12.173 7.284 #C3
379 1 6 -0.05180 0.710 5.581 -5.550 #C3
380 1 6 -0.05180 12.194 5.581 -7.249 #C3
381 1 6 -0.05180 -5.533 -7.253 12.177 #C3
382 1 6 -0.05180 12.194 -5.554 7.284 #C3
383 1 6 -0.05180 -7.232 0.689 7.284 #C3
384 1 5 1.09830 -9.964 -6.404 -6.400 #C1
385 1 6 -0.05180 7.301 7.280 -0.658 #C3
386 1 7 -0.13780 -1.346 -6.404 -6.400 #C2
387 1 6 -0.05180 -0.641 7.280 7.284 #C3
388 1 6 -0.05180 -7.232 -0.662 7.284 #C3
389 1 6 -0.05180 12.194 7.280 -5.550 #C3
390 1 5 1.09830 -6.383 10.012 6.435 #C1
391 1 6 -0.05180 12.194 -7.253 5.585 #C3
392 1 6 -0.05180 -5.533 7.280 12.177 #C3
393 1 6 -0.05180 -5.533 0.689 -5.550 #C3
394 1 6 -0.05180 0.710 -5.554 5.585 #C3
395 1 6 -0.05180 5.602 -12.146 7.284 #C3
396 1 6 -0.05180 -12.125 -5.554 -7.249 #C3
397 1 5 1.09830 -6.383 6.431 -9.981 #C1
398 1 6 -0.05180 -7.232 7.280 -0.658 #C3
399 1 6 -0.05180 -5.533 -12.146 -7.249 #C3
400 1 5 1.09830 -6.383 -9.985 -6.400 #C1
401 1 6 -0.05180 5.602 -5.554 -0.658 #C3
402 1 6 -0.05180 7.301 12.173 5.585 #C3
403 1 6 -0.05180 -5.533 -5.554 -0.658 #C3
404 1 6 -0.05180 7.301 -7.253 -0.658 #C3
405 1 7 -0.13780 -6.383 -6.404 -1.363 #C2
406 1 6 -0.05180 -12.125 5.581 -7.249 #C3
407 1 6 -0.05180 7.301 12.173 -5.550 #C3
408 1 5 1.09830 -9.964 6.431 -6.400 #C1
409 1 6 -0.05180 5.602 5.581 -0.658 #C3
410 1 6 -0.05180 0.710 5.581 5.585 #C3
411 1 5 1.09830 -9.964 6.431 6.435 #C1
412 1 5 1.09830 -9.964 -6.404 6.435 #C1
413 1 6 -0.05180 -7.232 -7.253 -0.658 #C3
414 1 6 -0.05180 -7.232 -12.146 -5.550 #C3
415 1 6 -0.05180 7.301 5.581 -12.143 #C3
416 1 6 -0.05180 -7.232 7.280 0.693 #C3
417 1 6 -0.05180 -0.641 -5.554 -5.550 #C3
418 1 6 -0.05180 7.301 -7.253 0.693 #C3
419 1 6 -0.05180 7.301 0.689 -7.249 #C3
420 1 6 -0.05180 7.301 -12.146 -5.550 #C3
421 1 5 1.09830 10.033 -6.404 -6.400 #C1
422 1 6 -0.05180 -7.232 5.581 12.177 #C3
423 1 6 -0.05180 -12.194 -7.253 -5.550 #C3
424 1 6 -0.05180 7.301 -12.173 5.585 #C3
425 2 8 -0.74640 -0.525 -1.578 3.342 #H2G
426 2 9 0.37320 -0.467 -1.877 3.128 #H2E
427 2 9 0.37320 -0.581 -1.282 3.556 #H2E
428 2 10 0.00000 -0.470 -1.868 3.133 #H2N
429 2 10 0.00000 -0.580 -1.287 3.552 #H2N
430 3 8 -0.74640 11.986 -9.148 -9.009 #H2G
431 3 9 0.37320 11.887 -8.808 -9.122 #H2E
432 3 9 0.37320 12.082 -9.487 -8.897 #H2E
433 3 10 0.00000 11.891 -8.817 -9.119 #H2N
434 3 10 0.00000 12.081 -9.481 -8.899 #H2N
435 4 8 -0.74640 -9.519 -3.667 -9.730 #H2G
436 4 9 0.37320 -9.764 -3.642 -10.008 #H2E
437 4 9 0.37320 -9.273 -3.691 -9.455 #H2E
438 4 10 0.00000 -9.758 -3.643 -10.000 #H2N
439 4 10 0.00000 -9.277 -3.691 -9.459 #H2N
440 5 8 -0.74640 4.380 11.917 0.425 #H2G
441 5 9 0.37320 4.467 12.202 0.647 #H2E
442 5 9 0.37320 4.291 11.633 0.205 #H2E
443 5 10 0.00000 4.466 12.194 0.640 #H2N
444 5 10 0.00000 4.293 11.638 0.209 #H2N
445 6 8 -0.74640 11.780 -1.919 -8.480 #H2G
446 6 9 0.37320 11.736 -2.022 -8.834 #H2E
447 6 9 0.37320 11.826 -1.816 -8.127 #H2E
448 6 10 0.00000 11.736 -2.019 -8.824 #H2N
449 6 10 0.00000 11.825 -1.818 -8.133 #H2N
450 7 8 -0.74640 -7.185 -9.400 -9.994 #H2G
451 7 9 0.37320 -7.490 -9.577 -9.877 #H2E
452 7 9 0.37320 -6.883 -9.221 -10.111 #H2E
453 7 10 0.00000 -7.480 -9.573 -9.880 #H2N
454 7 10 0.00000 -6.887 -9.224 -10.109 #H2N
455 8 8 -0.74640 11.836 0.346 11.192 #H2G
456 8 9 0.37320 12.014 0.283 11.512 #H2E
457 8 9 0.37320 11.657 0.410 10.874 #H2E
458 8 10 0.00000 12.010 0.284 11.502 #H2N
459 8 10 0.00000 11.660 0.408 10.879 #H2N
460 9 8 -0.74640 -6.268 10.231 -10.156 #H2G
461 9 9 0.37320 -6.243 10.014 -9.856 #H2E
462 9 9 0.37320 -6.294 10.445 -10.457 #H2E
463 9 10 0.00000 -6.243 10.021 -9.863 #H2N
464 9 10 0.00000 -6.293 10.441 -10.452 #H2N
465 10 8 -0.74640 -4.482 -0.126 -9.012 #H2G
466 10 9 0.37320 -4.480 -0.177 -9.380 #H2E
467 10 9 0.37320 -4.485 -0.073 -8.646 #H2E
468 10 10 0.00000 -4.480 -0.177 -9.370 #H2N
469 10 10 0.00000 -4.484 -0.075 -8.652 #H2N
470 11 8 -0.74640 -6.637 -2.509 -1.978 #H2G
471 11 9 0.37320 -6.480 -2.690 -2.262 #H2E
472 11 9 0.37320 -6.792 -2.331 -1.694 #H2E
473 11 10 0.00000 -6.485 -2.684 -2.255 #H2N
474 11 10 0.00000 -6.790 -2.334 -1.699 #H2N
475 12 8 -0.74640 -0.705 7.246 -1.167 #H2G
476 12 9 0.37320 -0.493 7.138 -1.453 #H2E
477 12 9 0.37320 -0.917 7.355 -0.885 #H2E
478 12 10 0.00000 -0.499 7.140 -1.444 #H2N
479 12 10 0.00000 -0.913 7.353 -0.889 #H2N
480 13 8 -0.74640 -2.440 -2.424 5.429 #H2G
481 13 9 0.37320 -2.777 -2.548 5.525 #H2E
482 13 9 0.37320 -2.104 -2.302 5.331 #H2E
483 13 10 0.00000 -2.768 -2.543 5.523 #H2N
484 13 10 0.00000 -2.110 -2.304 5.334 #H2N
485 14 8 -0.74640 -3.329 3.272 3.486 #H2G
486 14 9 0.37320 -3.506 3.075 3.746 #H2E
487 14 9 0.37320 -3.154 3.466 3.224 #H2E
488 14 10 0.00000 -3.501 3.081 3.740 #H2N
489 14 10 0.00000 -3.156 3.463 3.229 #H2N
490 15 8 -0.74640 2.836 7.407 -2.934 #H2G
491 15 9 0.37320 2.732 7.746 -3.045 #H2E
492 15 9 0.37320 2.941 7.071 -2.822 #H2E
493 15 10 0.00000 2.734 7.736 -3.043 #H2N
494 15 10 0.00000 2.939 7.076 -2.824 #H2N
495 16 8 -0.74640 12.230 -3.747 3.450 #H2G
496 16 9 0.37320 12.438 -3.557 3.208 #H2E
497 16 9 0.37320 12.020 -3.936 3.689 #H2E
498 16 10 0.00000 12.433 -3.563 3.215 #H2N
499 16 10 0.00000 12.024 -3.933 3.686 #H2N
500 17 8 -0.74640 -9.197 1.180 4.424 #H2G
501 17 9 0.37320 -8.968 1.259 4.142 #H2E
502 17 9 0.37320 -9.427 1.103 4.703 #H2E
503 17 10 0.00000 -8.973 1.256 4.151 #H2N
504 17 10 0.00000 -9.423 1.104 4.699 #H2N
505 18 8 -0.74640 -9.382 -1.945 -12.197 #H2G
506 18 9 0.37320 -9.739 -1.845 -12.175 #H2E
507 18 9 0.37320 -9.027 -2.046 -12.215 #H2E
508 18 10 0.00000 -9.729 -1.847 -12.177 #H2N
509 18 10 0.00000 -9.032 -2.044 -12.215 #H2N
510 19 8 -0.74640 6.446 10.252 10.092 #H2G
511 19 9 0.37320 6.661 10.424 10.341 #H2E
512 19 9 0.37320 6.233 10.082 9.842 #H2E
513 19 10 0.00000 6.655 10.419 10.335 #H2N
514 19 10 0.00000 6.236 10.084 9.846 #H2N
515 20 8 -0.74640 10.480 -2.864 6.272 #H2G
516 20 9 0.37320 10.233 -3.006 6.511 #H2E
517 20 9 0.37320 10.726 -2.722 6.035 #H2E
518 20 10 0.00000 10.241 -3.003 6.504 #H2N
519 20 10 0.00000 10.722 -2.724 6.039 #H2N
520 21 8 -0.74640 12.300 1.949 -9.073 #H2G
521 21 9 0.37320 11.958 1.985 -9.213 #H2E
522 21 9 0.37320 12.641 1.912 -8.934 #H2E
523 21 10 0.00000 11.969 1.985 -9.210 #H2N
524 21 10 0.00000 12.636 1.913 -8.935 #H2N
525 22 8 -0.74640 2.781 -8.958 -3.408 #H2G
526 22 9 0.37320 2.865 -8.987 -3.769 #H2E
527 22 9 0.37320 2.699 -8.927 -3.048 #H2E
528 22 10 0.00000 2.862 -8.985 -3.758 #H2N
529 22 10 0.00000 2.700 -8.929 -3.054 #H2N
530 23 8 -0.74640 -6.128 1.633 2.426 #H2G
531 23 9 0.37320 -6.146 1.350 2.186 #H2E
532 23 9 0.37320 -6.108 1.914 2.667 #H2E
533 23 10 0.00000 -6.145 1.359 2.192 #H2N
534 23 10 0.00000 -6.109 1.909 2.662 #H2N
535 24 8 -0.74640 10.325 -12.583 -8.337 #H2G
536 24 9 0.37320 10.200 -12.427 -8.023 #H2E
537 24 9 0.37320 10.451 -12.737 -8.649 #H2E
538 24 10 0.00000 10.205 -12.432 -8.032 #H2N
539 24 10 0.00000 10.448 -12.736 -8.644 #H2N
540 25 8 -0.74640 -2.985 -9.925 -9.261 #H2G
541 25 9 0.37320 -2.987 -10.169 -9.542 #H2E
542 25 9 0.37320 -2.981 -9.682 -8.982 #H2E
543 25 10 0.00000 -2.986 -10.161 -9.534 #H2N
544 25 10 0.00000 -2.982 -9.686 -8.987 #H2N
545 26 8 -0.74640 8.527 -3.104 -3.214 #H2G
546 26 9 0.37320 8.520 -3.419 -3.016 #H2E
547 26 9 0.37320 8.532 -2.791 -3.411 #H2E
548 26 10 0.00000 8.519 -3.409 -3.021 #H2N
549 26 10 0.00000 8.533 -2.796 -3.407 #H2N
550 27 8 -0.74640 11.828 0.070 7.842 #H2G
551 27 9 0.37320 11.496 0.008 7.998 #H2E
552 27 9 0.37320 12.160 0.131 7.689 #H2E
553 27 10 0.00000 11.506 0.009 7.993 #H2N
554 27 10 0.00000 12.154 0.130 7.691 #H2N
555 28 8 -0.74640 -2.550 -10.293 1.192 #H2G
556 28 9 0.37320 -2.792 -10.124 0.966 #H2E
557 28 9 0.37320 -2.311 -10.462 1.418 #H2E
558 28 10 0.00000 -2.785 -10.130 0.972 #H2N
559 28 10 0.00000 -2.314 -10.459 1.414 #H2N
560 29 8 -0.74640 10.408 -10.316 3.698 #H2G
561 29 9 0.37320 10.110 -10.150 3.846 #H2E
562 29 9 0.37320 10.705 -10.481 3.550 #H2E
563 29 10 0.00000 10.119 -10.154 3.841 #H2N
564 29 10 0.00000 10.700 -10.478 3.553 #H2N
565 30 8 -0.74640 10.294 -10.013 -4.020 #H2G
566 30 9 0.37320 10.040 -9.770 -3.902 #H2E
567 30 9 0.37320 10.549 -10.255 -4.137 #H2E
568 30 10 0.00000 10.048 -9.777 -3.905 #H2N
569 30 10 0.00000 10.545 -10.251 -4.136 #H2N
570 31 8 -0.74640 -2.528 2.503 -6.204 #H2G
571 31 9 0.37320 -2.873 2.630 -6.155 #H2E
572 31 9 0.37320 -2.183 2.377 -6.253 #H2E
573 31 10 0.00000 -2.863 2.627 -6.156 #H2N
574 31 10 0.00000 -2.189 2.379 -6.252 #H2N
575 32 8 -0.74640 -9.409 -9.623 -3.184 #H2G
576 32 9 0.37320 -9.239 -9.417 -3.442 #H2E
577 32 9 0.37320 -9.581 -9.827 -2.927 #H2E
578 32 10 0.00000 -9.244 -9.423 -3.435 #H2N
579 32 10 0.00000 -9.578 -9.824 -2.931 #H2N
580 33 8 -0.74640 3.345 -3.764 -8.575 #H2G
581 33 9 0.37320 3.161 -4.018 -8.773 #H2E
582 33 9 0.37320 3.531 -3.511 -8.377 #H2E
583 33 10 0.00000 3.166 -4.011 -8.768 #H2N
584 33 10 0.00000 3.527 -3.516 -8.380 #H2N
585 34 8 -0.74640 10.063 3.019 9.227 #H2G
586 34 9 0.37320 10.061 3.225 8.918 #H2E
587 34 9 0.37320 10.063 2.813 9.535 #H2E
588 34 10 0.00000 10.061 3.219 8.927 #H2N
589 34 10 0.00000 10.063 2.817 9.530 #H2N
590 35 8 -0.74640 2.605 5.397 10.084 #H2G
591 35 9 0.37320 2.802 5.519 9.794 #H2E
592 35 9 0.37320 2.409 5.278 10.376 #H2E
593 35 10 0.00000 2.796 5.516 9.802 #H2N
594 35 10 0.00000 2.412 5.280 10.370 #H2N
595 36 8 -0.74640 0.874 7.579 11.403 #H2G
596 36 9 0.37320 1.184 7.729 11.264 #H2E
597 36 9 0.37320 0.564 7.429 11.540 #H2E
598 36 10 0.00000 1.175 7.724 11.268 #H2N
599 36 10 0.00000 0.569 7.432 11.538 #H2N
600 37 8 -0.74640 -10.013 3.182 -5.016 #H2G
601 37 9 0.37320 -10.148 2.963 -4.748 #H2E
602 37 9 0.37320 -9.879 3.398 -5.286 #H2E
603 37 10 0.00000 -10.144 2.969 -4.756 #H2N
604 37 10 0.00000 -9.881 3.394 -5.281 #H2N
605 38 8 -0.74640 8.916 -3.775 3.963 #H2G
606 38 9 0.37320 8.694 -3.523 3.804 #H2E
607 38 9 0.37320 9.139 -4.025 4.122 #H2E
608 38 10 0.00000 8.700 -3.530 3.809 #H2N
609 38 10 0.00000 9.135 -4.021 4.119 #H2N
610 39 8 -0.74640 -2.420 -5.445 -11.239 #H2G
611 39 9 0.37320 -2.708 -5.650 -11.352 #H2E
612 39 9 0.37320 -2.130 -5.242 -11.126 #H2E
613 39 10 0.00000 -2.700 -5.645 -11.349 #H2N
614 39 10 0.00000 -2.136 -5.246 -11.128 #H2N
615 40 8 -0.74640 -6.223 -10.943 -2.632 #H2G
616 40 9 0.37320 -6.061 -11.275 -2.671 #H2E
617 40 9 0.37320 -6.386 -10.612 -2.591 #H2E
618 40 10 0.00000 -6.065 -11.265 -2.670 #H2N
619 40 10 0.00000 -6.382 -10.618 -2.592 #H2N
620 41 8 -0.74640 -10.488 12.091 -0.699 #H2G
621 41 9 0.37320 -10.329 12.184 -1.022 #H2E
622 41 9 0.37320 -10.647 11.996 -0.378 #H2E
623 41 10 0.00000 -10.332 12.181 -1.012 #H2N
624 41 10 0.00000 -10.644 11.997 -0.383 #H2N
625 42 8 -0.74640 2.974 11.418 -4.906 #H2G
626 42 9 0.37320 2.930 11.714 -5.127 #H2E
627 42 9 0.37320 3.018 11.121 -4.689 #H2E
628 42 10 0.00000 2.932 11.706 -5.121 #H2N
629 42 10 0.00000 3.018 11.126 -4.692 #H2N
630 43 8 -0.74640 -9.589 3.205 9.280 #H2G
631 43 9 0.37320 -9.428 3.084 9.592 #H2E
632 43 9 0.37320 -9.749 3.329 8.969 #H2E
633 43 10 0.00000 -9.432 3.087 9.583 #H2N
634 43 10 0.00000 -9.746 3.327 8.974 #H2N
635 44 8 -0.74640 10.521 6.774 1.895 #H2G
636 44 9 0.37320 10.613 6.879 2.239 #H2E
637 44 9 0.37320 10.431 6.666 1.552 #H2E
638 44 10 0.00000 10.609 6.876 2.230 #H2N
639 44 10 0.00000 10.432 6.667 1.558 #H2N
640 45 8 -0.74640 3.786 -1.454 1.800 #H2G
641 45 9 0.37320 3.967 -1.773 1.858 #H2E
642 45 9 0.37320 3.604 -1.137 1.741 #H2E
643 45 10 0.00000 3.961 -1.765 1.857 #H2N
644 45 10 0.00000 3.606 -1.142 1.743 #H2N
645 46 8 -0.74640 -2.485 -5.865 10.606 #H2G
646 46 9 0.37320 -2.249 -5.666 10.399 #H2E
647 46 9 0.37320 -2.719 -6.063 10.814 #H2E
648 46 10 0.00000 -2.256 -5.670 10.405 #H2N
649 46 10 0.00000 -2.715 -6.059 10.811 #H2N
650 47 8 -0.74640 3.212 -7.757 2.879 #H2G
651 47 9 0.37320 3.189 -7.386 2.899 #H2E
652 47 9 0.37320 3.235 -8.126 2.858 #H2E
653 47 10 0.00000 3.190 -7.396 2.898 #H2N
654 47 10 0.00000 3.235 -8.120 2.858 #H2N
655 48 8 -0.74640 8.808 8.588 8.219 #H2G
656 48 9 0.37320 9.146 8.633 8.072 #H2E
657 48 9 0.37320 8.470 8.543 8.363 #H2E
658 48 10 0.00000 9.137 8.631 8.076 #H2N
659 48 10 0.00000 8.475 8.543 8.361 #H2N
660 49 8 -0.74640 -12.316 9.493 10.385 #H2G
661 49 9 0.37320 -12.405 9.849 10.442 #H2E
662 49 9 0.37320 -12.225 9.138 10.330 #H2E
663 49 10 0.00000 -12.403 9.839 10.441 #H2N
664 49 10 0.00000 -12.227 9.144 10.332 #H2N
665 50 8 -0.74640 -0.057 -2.362 -2.777 #H2G
666 50 9 0.37320 0.098 -2.534 -3.068 #H2E
667 50 9 0.37320 -0.211 -2.193 -2.485 #H2E
668 50 10 0.00000 0.094 -2.529 -3.060 #H2N
669 50 10 0.00000 -0.208 -2.196 -2.490 #H2N
670 51 8 -0.74640 11.125 12.154 -2.062 #H2G
671 51 9 0.37320 11.483 12.157 -1.962 #H2E
672 51 9 0.37320 10.768 12.148 -2.162 #H2E
673 51 10 0.00000 11.473 12.157 -1.963 #H2N
674 51 10 0.00000 10.774 12.148 -2.160 #H2N
675 52 8 -0.74640 -7.687 0.093 -10.482 #H2G
676 52 9 0.37320 -8.049 0.012 -10.511 #H2E
677 52 9 0.37320 -7.327 0.175 -10.454 #H2E
678 52 10 0.00000 -8.039 0.015 -10.509 #H2N
679 52 10 0.00000 -7.333 0.174 -10.454 #H2N
680 53 8 -0.74640 -5.433 -3.133 10.105 #H2G
681 53 9 0.37320 -5.737 -3.297 9.968 #H2E
682 53 9 0.37320 -5.129 -2.972 10.242 #H2E
683 53 10 0.00000 -5.729 -3.293 9.970 #H2N
684 53 10 0.00000 -5.134 -2.975 10.239 #H2N
685 54 8 -0.74640 10.616 -2.404 -5.277 #H2G
686 54 9 0.37320 10.427 -2.526 -5.570 #H2E
687 54 9 0.37320 10.806 -2.282 -4.982 #H2E
688 54 10 0.00000 10.434 -2.525 -5.564 #H2N
689 54 10 0.00000 10.802 -2.283 -4.986 #H2N
690 55 8 -0.74640 -2.301 -5.209 2.628 #H2G
691 55 9 0.37320 -2.641 -5.258 2.763 #H2E
692 55 9 0.37320 -1.959 -5.159 2.491 #H2E
693 55 10 0.00000 -2.634 -5.256 2.757 #H2N
694 55 10 0.00000 -1.963 -5.161 2.494 #H2N
695 56 8 -0.74640 -7.883 0.182 10.667 #H2G
696 56 9 0.37320 -8.106 0.166 10.962 #H2E
697 56 9 0.37320 -7.659 0.197 10.372 #H2E
698 56 10 0.00000 -8.098 0.168 10.956 #H2N
699 56 10 0.00000 -7.663 0.198 10.375 #H2N
700 57 8 -0.74640 -12.806 -0.880 3.965 #H2G
701 57 9 0.37320 -12.834 -0.892 4.333 #H2E
702 57 9 0.37320 -12.779 -0.866 3.595 #H2E
703 57 10 0.00000 -12.834 -0.889 4.324 #H2N
704 57 10 0.00000 -12.780 -0.868 3.600 #H2N
705 58 8 -0.74640 -3.763 -0.566 8.594 #H2G
706 58 9 0.37320 -3.636 -0.720 8.283 #H2E
707 58 9 0.37320 -3.890 -0.412 8.907 #H2E
708 58 10 0.00000 -3.638 -0.718 8.291 #H2N
709 58 10 0.00000 -3.889 -0.414 8.902 #H2N
710 59 8 -0.74640 11.490 -10.903 -0.095 #H2G
711 59 9 0.37320 11.296 -11.135 0.117 #H2E
712 59 9 0.37320 11.685 -10.670 -0.308 #H2E
713 59 10 0.00000 11.301 -11.128 0.115 #H2N
714 59 10 0.00000 11.681 -10.674 -0.306 #H2N
715 60 8 -0.74640 -9.925 9.973 -3.405 #H2G
716 60 9 0.37320 -10.206 10.190 -3.304 #H2E
717 60 9 0.37320 -9.641 9.755 -3.507 #H2E
718 60 10 0.00000 -10.198 10.188 -3.307 #H2N
719 60 10 0.00000 -9.647 9.757 -3.506 #H2N
720 61 8 -0.74640 -5.748 -10.887 10.783 #H2G
721 61 9 0.37320 -5.457 -10.694 10.662 #H2E
722 61 9 0.37320 -6.039 -11.082 10.905 #H2E
723 61 10 0.00000 -5.462 -10.700 10.666 #H2N
724 61 10 0.00000 -6.036 -11.079 10.902 #H2N
725 62 8 -0.74640 6.020 10.205 2.697 #H2G
726 62 9 0.37320 6.067 9.965 2.974 #H2E